 Gaussian 16, Revision C.01,
 Gaussian 16:  ES64L-G16RevC.01  3-Jul-2019

 ------------------------------------
 # opt freq M062x/aug-cc-pvtz pop=nbo
 ------------------------------------

 ------------------
 3-CF3_benzoic-acid
 ------------------
 Symbolic Z-matrix:
 Charge =  0 Multiplicity = 1

 SCF Done:  E(RM062X) =  -757.875757597     A.U. after   13 cycles
 SCF Done:  E(RM062X) =  -757.903860363     A.U. after   12 cycles
 SCF Done:  E(RM062X) =  -757.906355688     A.U. after   11 cycles
 SCF Done:  E(RM062X) =  -757.906492265     A.U. after   10 cycles
 SCF Done:  E(RM062X) =  -757.906503334     A.U. after    9 cycles
 SCF Done:  E(RM062X) =  -757.906504972     A.U. after    8 cycles
 Optimization completed.
    -- Stationary point found.
 Normal termination of Gaussian 16 at Tue Sep  6 16:41:23 2022.

 ----------------------------------------------------------------------
 #N Geom=AllCheck Guess=TCheck SCRF=Check GenChk RM062X/Aug-CC-pVTZ Fre
 q
 ----------------------------------------------------------------------

 Structure from the checkpoint file:  "3-CF3.chk"
 ------------------
 3-CF3_benzoic-acid
 ------------------
 Charge =  0 Multiplicity = 1

                         Standard orientation:
 ---------------------------------------------------------------------
 Center     Atomic      Atomic             Coordinates (Angstroms)
 Number     Number       Type             X           Y           Z
 ---------------------------------------------------------------------
      1          6           0        1.549401    1.605712   -0.000006
      2          6           0        0.382544    2.347706    0.000014
      3          6           0       -0.849788    1.705540    0.000008
      4          6           0       -0.901221    0.321131   -0.000020
      5          6           0        0.263278   -0.433240   -0.000040
      6          6           0        1.489395    0.214682   -0.000035
      7          6           0        2.772323   -0.539376   -0.000066
      8          8           0        3.859043   -0.029950    0.000033
      9          8           0        2.596157   -1.872053    0.000030
     10          9           0       -2.339946   -1.197424   -1.074411
     11          6           0       -2.216183   -0.405566    0.000000
     12          9           0       -3.259014    0.429932   -0.000202
     13          9           0       -2.340097   -1.197086    1.074645
     14          1           0        2.520134    2.081525   -0.000004
     15          1           0        0.425946    3.427367    0.000033
     16          1           0       -1.766566    2.277283    0.000021
     17          1           0        0.217513   -1.513411   -0.000066
     18          1           0        3.474396   -2.275083    0.000095
 ---------------------------------------------------------------------

 SCF Done:  E(RM062X) =  -757.906504972     A.U. after    1 cycles

 The electronic state is 1-A.
 Alpha  occ. eigenvalues --  -25.28918 -25.28429 -25.28428 -19.68990 -19.63395
 Alpha  occ. eigenvalues --  -10.80750 -10.69693 -10.58900 -10.58486 -10.58316
 Alpha  occ. eigenvalues --  -10.58239 -10.57674 -10.57381  -1.47706  -1.38596
 Alpha  occ. eigenvalues --   -1.38113  -1.25875  -1.16216  -1.00977  -0.91622
 Alpha  occ. eigenvalues --   -0.89374  -0.82164  -0.77948  -0.74189  -0.71998
 Alpha  occ. eigenvalues --   -0.70041  -0.69458  -0.66206  -0.61300  -0.60414
 Alpha  occ. eigenvalues --   -0.58931  -0.58375  -0.57566  -0.55996  -0.55529
 Alpha  occ. eigenvalues --   -0.54206  -0.53749  -0.53340  -0.52204  -0.49847
 Alpha  occ. eigenvalues --   -0.49786  -0.47394  -0.45261  -0.43704  -0.41966
 Alpha  occ. eigenvalues --   -0.37906  -0.34691  -0.34485
 Alpha virt. eigenvalues --   -0.04289  -0.01846  -0.01064  -0.00296   0.00889
 Alpha virt. eigenvalues --    0.01697   0.02466   0.02575   0.03408   0.04296
 Alpha virt. eigenvalues --    0.05083   0.05499   0.05652   0.06296   0.06332

 Mulliken charges:
               1
     1  C   -0.768128
     2  C   -0.261629
     3  C   -0.438791
     4  C    0.896989
     5  C   -0.689463
     6  C    1.507205
     7  C    0.451404
     8  O   -0.922599
     9  O   -0.545697
    10  F   -0.324543
    11  C    0.692533
    12  F   -0.296458
    13  F   -0.324528
    14  H    0.135765
    15  H    0.243088
    16  H    0.033649
    17  H    0.310819
    18  H    0.300384
 Sum of Mulliken charges =   0.00000

 Dipole moment (field-independent basis, Debye):
    X=              0.6124    Y=              0.8748    Z=             -0.0001  Tot=              1.0678
 Quadrupole moment (field-independent basis, Debye-Ang):
   XX=            -81.8506   YY=            -62.4134   ZZ=            -74.7091
   XY=             -8.0963   XZ=             -0.0001   YZ=              0.0000

  Exact polarizability:     128.808      -4.080     110.717       0.000       0.000      62.431
 Approx polarizability:     152.295      -0.987     143.389       0.001       0.001      83.868

 Summary of Natural Population Analysis:

                                       Natural Population
                Natural  -----------------------------------------------
    Atom  No    Charge         Core      Valence    Rydberg      Total
 -----------------------------------------------------------------------
      C    1   -0.13878      1.99921     4.12312    0.01645     6.13878
      C    2   -0.20175      1.99928     4.18537    0.01710     6.20175
      C    3   -0.15609      1.99919     4.14044    0.01646     6.15609
      C    4   -0.15167      1.99900     4.12604    0.02663     6.15167
      C    5   -0.13933      1.99912     4.12053    0.01968     6.13933
      C    6   -0.16952      1.99900     4.14411    0.02642     6.16952
      C    7    0.80503      1.99939     3.16259    0.03299     5.19497
      O    8   -0.59469      1.99977     6.56293    0.03199     8.59469
      O    9   -0.69735      1.99978     6.67266    0.02491     8.69735
      F   10   -0.34328      1.99993     7.33641    0.00695     9.34328
      C   11    1.04237      1.99922     2.90830    0.05011     4.95763
      F   12   -0.34246      1.99992     7.33560    0.00693     9.34246
      F   13   -0.34329      1.99993     7.33641    0.00695     9.34329
      H   14    0.23791      0.00000     0.75933    0.00276     0.76209
      H   15    0.21878      0.00000     0.77881    0.00242     0.78122
      H   16    0.23031      0.00000     0.76695    0.00274     0.76969
      H   17    0.24253      0.00000     0.75392    0.00355     0.75747
      H   18    0.50130      0.00000     0.49544    0.00326     0.49870
 =======================================================================
   * Total *    0.00000     25.99273    69.70897    0.29830    96.00000

                      1                      2                      3
                      A                      A                      A
 Frequencies --      9.4313                53.6451               121.6026
 Red. masses --     11.9386                12.4416                 6.1234
 Frc consts  --      0.0006                 0.0211                 0.0533
 IR Inten    --      0.0035                 2.5853                 0.0543

                      4                      5                      6
                      A                      A                      A
 Frequencies --    125.3779               172.3046               243.1296
 Red. masses --     10.3285                 5.0288                 7.5978
 Frc consts  --      0.0957                 0.0880                 0.2646
 IR Inten    --      1.8902                 0.3038                 0.4390

                      7                      8                      9
                      A                      A                      A
 Frequencies --    317.3868               329.3744               373.1541
 Red. masses --     12.7443                 5.5763                 7.8082
 Frc consts  --      0.7564                 0.3564                 0.6406
 IR Inten    --      1.7601                 0.1430                 3.1716

                     10                     11                     12
                      A                      A                      A
 Frequencies --    419.7555               426.3888               499.3638
 Red. masses --      9.0928                 3.0044                 7.0285
 Frc consts  --      0.9439                 0.3218                 1.0326
 IR Inten    --      8.0575                 6.2398                 2.6565

                     13                     14                     15
                      A                      A                      A
 Frequencies --    512.9231               584.9683               594.2486
 Red. masses --      7.4177                 1.7492                10.5474
 Frc consts  --      1.1498                 0.3527                 2.1945
 IR Inten    --      5.1685                37.5343                 0.9549

                     16                     17                     18
                      A                      A                      A
 Frequencies --    634.5930               650.1677               674.2917
 Red. masses --      2.5737                 5.4430                 7.1275
 Frc consts  --      0.6107                 1.3556                 1.9093
 IR Inten    --     49.8841                40.0957                40.4555

                     19                     20                     21
                      A                      A                      A
 Frequencies --    713.5186               760.9787               790.6080
 Red. masses --      2.1738                 7.9170                 3.6473
 Frc consts  --      0.6521                 2.7012                 1.3432
 IR Inten    --     20.0240                11.2382                72.6485

                     22                     23                     24
                      A                      A                      A
 Frequencies --    855.7624               874.8050               964.4079
 Red. masses --      1.7339                 6.2273                 1.5256
 Frc consts  --      0.7481                 2.8079                 0.8360
 IR Inten    --      6.4406                 4.6752                 8.3649

                     25                     26                     27
                      A                      A                      A
 Frequencies --    987.7426              1023.4320              1036.6973
 Red. masses --      1.4060                 6.3212                 1.3571
 Frc consts  --      0.8082                 3.9009                 0.8593
 IR Inten    --      0.3052                 2.7589                 0.3828

                     28                     29                     30
                      A                      A                      A
 Frequencies --   1107.7006              1117.0720              1151.8193
 Red. masses --      2.4078                 1.9179                 2.8767
 Frc consts  --      1.7406                 1.4101                 2.2486
 IR Inten    --     69.1945                55.7918                78.3534

                     31                     32                     33
                      A                      A                      A
 Frequencies --   1190.8030              1203.4770              1209.8410
 Red. masses --      1.1600                12.7717                 1.8668
 Frc consts  --      0.9692                10.8987                 1.6099
 IR Inten    --     17.4509               258.4480               114.7942

                     34                     35                     36
                      A                      A                      A
 Frequencies --   1232.2762              1316.2851              1347.9911
 Red. masses --      6.0860                 1.7809                 2.7752
 Frc consts  --      5.4450                 1.8180                 2.9711
 IR Inten    --    277.7436                42.7703                 4.3353

                     37                     38                     39
                      A                      A                      A
 Frequencies --   1359.7795              1408.2871              1488.8856
 Red. masses --      3.3615                 3.8618                 3.8893
 Frc consts  --      3.6620                 4.5125                 5.0797
 IR Inten    --    274.3524               198.8150                18.4447

                     40                     41                     42
                      A                      A                      A
 Frequencies --   1539.7730              1671.7811              1686.7143
 Red. masses --      2.8875                 6.6564                 6.2927
 Frc consts  --      4.0335                10.9609                10.5479
 IR Inten    --      3.4716                10.7926                10.5757

                     43                     44                     45
                      A                      A                      A
 Frequencies --   1853.5519              3217.0370              3228.5841
 Red. masses --     10.5573                 1.0880                 1.0920
 Frc consts  --     21.3704                 6.6343                 6.7064
 IR Inten    --    388.5588                 1.5814                 1.3060

                     46                     47                     48
                      A                      A                      A
 Frequencies --   3229.7561              3237.2075              3815.7613
 Red. masses --      1.0924                 1.0969                 1.0646
 Frc consts  --      6.7138                 6.7724                 9.1330
 IR Inten    --      1.9370                 1.5618               137.1039

 - Thermochemistry -
 -------------------
 Temperature   298.150 Kelvin.  Pressure   1.00000 Atm.
 Atom     1 has atomic number  6 and mass  12.00000

 Molecular mass:   190.02416 amu.
 Principal axes and moments of inertia in atomic units:
                           1         2         3
     Eigenvalues --  1171.540473744.325404602.53001
           X            0.99992  -0.01295   0.00000
           Y            0.01295   0.99992   0.00000
           Z            0.00000   0.00000   1.00000
 This molecule is an asymmetric top.
 Rotational symmetry number  1.
 Warning -- assumption of classical behavior for rotation
           may cause significant error
 Rotational temperatures (Kelvin)      0.07393     0.02313     0.01882
 Rotational constants (GHZ):           1.54049     0.48199     0.39212
 Zero-point vibrational energy     319190.3 (Joules/Mol)
                                   76.28830 (Kcal/Mol)
 Warning -- explicit consideration of  15 degrees of freedom as
           vibrations may cause significant error
 Vibrational temperatures:     13.57    77.18   174.96   180.39   247.91
          (Kelvin)            349.81   456.65   473.90   536.89   603.93
                              613.48   718.47   737.98   841.64   854.99
                              913.04   935.45   970.16  1026.59  1094.88
                             1137.51  1231.25  1258.65  1387.57  1421.14
                             1472.49  1491.58  1593.73  1607.22  1657.21
                             1713.30  1731.54  1740.69  1772.97  1893.84
                             1939.46  1956.42  2026.21  2142.17  2215.39
                             2405.32  2426.81  2666.85  4628.60  4645.21
                             4646.90  4657.62  5490.03

 Zero-point correction=                           0.121573 (Hartree/Particle)
 Thermal correction to Energy=                    0.132236
 Thermal correction to Enthalpy=                  0.133180
 Thermal correction to Gibbs Free Energy=         0.082470
 Sum of electronic and zero-point Energies=           -757.784932
 Sum of electronic and thermal Energies=              -757.774269
 Sum of electronic and thermal Enthalpies=            -757.773325
 Sum of electronic and thermal Free Energies=         -757.824035

                     E (Thermal)             CV                S
                      KCal/Mol        Cal/Mol-Kelvin    Cal/Mol-Kelvin
 Total                   82.979             39.499            106.730
 Electronic               0.000              0.000              0.000
 Translational            0.889              2.981             41.632
 Rotational               0.889              2.981             31.380
 Vibrational             81.202             33.537             33.719
 Vibration     1          0.593              1.987              8.127
 Vibration     2          0.596              1.976              4.678
 Vibration     3          0.609              1.931              3.075
 Vibration     4          0.610              1.928              3.016
 Vibration     5          0.626              1.877              2.410
 Vibration     6          0.659              1.774              1.780
 Vibration     7          0.704              1.640              1.324
 Vibration     8          0.712              1.617              1.263
 Vibration     9          0.745              1.527              1.067
 Vibration    10          0.782              1.427              0.893
 Vibration    11          0.788              1.413              0.871
 Vibration    12          0.855              1.251              0.660
 Vibration    13          0.868              1.221              0.627
 Vibration    14          0.942              1.064              0.476
 Vibration    15          0.952              1.044              0.460

 Optimization completed.
    -- Stationary point found.
 Normal termination of Gaussian 16 at Tue Sep  6 17:20:29 2022.
