 Gaussian 16, Revision C.01,
 Gaussian 16:  ES64L-G16RevC.01  3-Jul-2019

 ------------------------------------
 # opt freq M062x/aug-cc-pvtz pop=nbo
 ------------------------------------

 ------------------
 3-CHO_benzoic-acid
 ------------------
 Symbolic Z-matrix:
 Charge =  0 Multiplicity = 1

 SCF Done:  E(RM062X) =  -534.105162359     A.U. after   14 cycles
 SCF Done:  E(RM062X) =  -534.140645222     A.U. after   12 cycles
 SCF Done:  E(RM062X) =  -534.145540365     A.U. after   12 cycles
 SCF Done:  E(RM062X) =  -534.145767584     A.U. after   11 cycles
 SCF Done:  E(RM062X) =  -534.145786347     A.U. after    9 cycles
 Optimization completed.
    -- Stationary point found.
 Normal termination of Gaussian 16 at Tue Sep  6 16:31:04 2022.

 ----------------------------------------------------------------------
 #N Geom=AllCheck Guess=TCheck SCRF=Check GenChk RM062X/Aug-CC-pVTZ Fre
 q
 ----------------------------------------------------------------------

 Structure from the checkpoint file:  "3-CHO.chk"
 ------------------
 3-CHO_benzoic-acid
 ------------------
 Charge =  0 Multiplicity = 1

                         Standard orientation:
 ---------------------------------------------------------------------
 Center     Atomic      Atomic             Coordinates (Angstroms)
 Number     Number       Type             X           Y           Z
 ---------------------------------------------------------------------
      1          6           0       -0.804048    1.589982    0.000006
      2          6           0        0.410861    2.252457   -0.000028
      3          6           0        1.589713    1.518812   -0.000027
      4          6           0        1.551824    0.129593    0.000008
      5          6           0        0.331248   -0.538629    0.000042
      6          6           0       -0.843600    0.195374    0.000046
      7          6           0       -2.180608   -0.458926    0.000102
      8          8           0       -3.225563    0.132773   -0.000021
      9          8           0       -2.105805   -1.800175   -0.000064
     10          6           0        2.821127   -0.636466    0.000015
     11          8           0        2.887305   -1.836129   -0.000009
     12          1           0       -1.740089    2.131572    0.000009
     13          1           0        0.440121    3.332828   -0.000054
     14          1           0        2.548793    2.023473   -0.000054
     15          1           0        0.318386   -1.619736    0.000072
     16          1           0       -3.011982   -2.135225   -0.000150
     17          1           0        3.738182   -0.017843   -0.000054
 ---------------------------------------------------------------------

 SCF Done:  E(RM062X) =  -534.145786347     A.U. after    1 cycles

 The electronic state is 1-A.
 Alpha  occ. eigenvalues --  -19.68632 -19.63845 -19.63075 -10.69346 -10.64250
 Alpha  occ. eigenvalues --  -10.58084 -10.58080 -10.57623 -10.57602 -10.57364
 Alpha  occ. eigenvalues --  -10.57150  -1.25538  -1.18965  -1.15877  -1.00156
 Alpha  occ. eigenvalues --   -0.90134  -0.88450  -0.77482  -0.76150  -0.70810
 Alpha  occ. eigenvalues --   -0.66444  -0.63244  -0.60048  -0.58084  -0.56248
 Alpha  occ. eigenvalues --   -0.55664  -0.54851  -0.52838  -0.52108  -0.50134
 Alpha  occ. eigenvalues --   -0.49557  -0.45649  -0.45181  -0.43897  -0.41577
 Alpha  occ. eigenvalues --   -0.37707  -0.34707  -0.34302  -0.33791
 Alpha virt. eigenvalues --   -0.05033  -0.03613  -0.01062  -0.00332   0.00601
 Alpha virt. eigenvalues --    0.01749   0.02215   0.02380   0.03212   0.03652
 Alpha virt. eigenvalues --    0.04920   0.04980   0.05728   0.05729   0.05922

 Mulliken charges:
               1
     1  C   -0.712374
     2  C   -0.280976
     3  C   -0.535566
     4  C    1.422356
     5  C   -0.615591
     6  C    1.460197
     7  C    0.464937
     8  O   -0.926300
     9  O   -0.527848
    10  C   -0.173194
    11  O   -0.878255
    12  H    0.113529
    13  H    0.246102
    14  H    0.045388
    15  H    0.163892
    16  H    0.295569
    17  H    0.438133
 Sum of Mulliken charges =   0.00000

 Dipole moment (field-independent basis, Debye):
    X=              0.4772    Y=              2.2678    Z=              0.0001  Tot=              2.3175
 Quadrupole moment (field-independent basis, Debye-Ang):
   XX=            -66.4206   YY=            -59.6707   ZZ=            -64.1385
   XY=             14.5634   XZ=              0.0000   YZ=              0.0000

  Exact polarizability:     135.999      -2.839     117.446       0.000       0.000      57.714
 Approx polarizability:     159.648      -7.457     156.350       0.000      -0.001      78.622

 Summary of Natural Population Analysis:

                                       Natural Population
                Natural  -----------------------------------------------
    Atom  No    Charge         Core      Valence    Rydberg      Total
 -----------------------------------------------------------------------
      C    1   -0.12849      1.99921     4.11293    0.01635     6.12849
      C    2   -0.21201      1.99928     4.19550    0.01723     6.21201
      C    3   -0.14365      1.99920     4.12845    0.01599     6.14365
      C    4   -0.17810      1.99909     4.15577    0.02324     6.17810
      C    5   -0.11443      1.99911     4.09567    0.01964     6.11443
      C    6   -0.17557      1.99900     4.15041    0.02616     6.17557
      C    7    0.80500      1.99939     3.16258    0.03303     5.19500
      O    8   -0.59800      1.99977     6.56634    0.03189     8.59800
      O    9   -0.69418      1.99978     6.66926    0.02514     8.69418
      C   10    0.43537      1.99946     3.53481    0.03036     5.56463
      O   11   -0.51832      1.99980     6.48939    0.02913     8.51832
      H   12    0.23696      0.00000     0.76035    0.00269     0.76304
      H   13    0.21748      0.00000     0.78003    0.00249     0.78252
      H   14    0.21274      0.00000     0.78448    0.00278     0.78726
      H   15    0.24897      0.00000     0.74737    0.00367     0.75103
      H   16    0.50031      0.00000     0.49644    0.00324     0.49969
      H   17    0.10593      0.00000     0.89070    0.00337     0.89407
 =======================================================================
   * Total *    0.00000     21.99310    55.72050    0.28640    78.00000

                      1                      2                      3
                      A                      A                      A
 Frequencies --     55.9712               117.1152               142.3026
 Red. masses --     12.1534                 4.3238                 9.0125
 Frc consts  --      0.0224                 0.0349                 0.1075
 IR Inten    --      4.3825                 5.5926                 6.1745

                      4                      5                      6
                      A                      A                      A
 Frequencies --    150.5966               244.7583               260.5772
 Red. masses --      4.3380                 2.6330                 6.6897
 Frc consts  --      0.0580                 0.0929                 0.2676
 IR Inten    --      1.3685                 4.1805                 0.8306

                      7                      8                      9
                      A                      A                      A
 Frequencies --    383.9310               427.5222               449.0871
 Red. masses --      7.9905                 2.8267                 6.3247
 Frc consts  --      0.6940                 0.3044                 0.7515
 IR Inten    --      5.9581                 8.9382                 1.6982

                     10                     11                     12
                      A                      A                      A
 Frequencies --    479.8038               503.8435               598.5631
 Red. masses --      3.2926                 7.2243                 1.2639
 Frc consts  --      0.4466                 1.0805                 0.2668
 IR Inten    --      0.3569                13.4102                90.3757

                     13                     14                     15
                      A                      A                      A
 Frequencies --    649.1874               662.1985               690.8984
 Red. masses --      5.0561                 6.5077                 2.4925
 Frc consts  --      1.2555                 1.6813                 0.7010
 IR Inten    --     59.8440                26.6737                 2.3602

                     16                     17                     18
                      A                      A                      A
 Frequencies --    757.4971               780.5952               851.6265
 Red. masses --      4.7285                 2.4646                 1.9171
 Frc consts  --      1.5986                 0.8848                 0.8192
 IR Inten    --     17.3338                85.7291                 2.5360

                     19                     20                     21
                      A                      A                      A
 Frequencies --    949.9653               967.6828               988.1024
 Red. masses --      3.8350                 1.3468                 1.4633
 Frc consts  --      2.0390                 0.7430                 0.8418
 IR Inten    --     26.5152                 1.5111                 1.3803

                     22                     23                     24
                      A                      A                      A
 Frequencies --   1022.4639              1034.1875              1051.9756
 Red. masses --      6.2297                 1.3683                 1.8269
 Frc consts  --      3.8372                 0.8623                 1.1912
 IR Inten    --      0.5258                 0.0138                 1.3644

                     25                     26                     27
                      A                      A                      A
 Frequencies --   1114.3308              1129.8303              1184.1334
 Red. masses --      2.0774                 1.6710                 1.2029
 Frc consts  --      1.5199                 1.2568                 0.9938
 IR Inten    --     68.6674                19.4003                50.6698

                     28                     29                     30
                      A                      A                      A
 Frequencies --   1193.9682              1248.3186              1309.1019
 Red. masses --      1.8185                 2.3931                 1.5467
 Frc consts  --      1.5274                 2.1972                 1.5617
 IR Inten    --    161.4087                88.1506                 7.1312

                     31                     32                     33
                      A                      A                      A
 Frequencies --   1347.8477              1399.9296              1428.6575
 Red. masses --      3.5851                 2.7852                 1.4274
 Frc consts  --      3.8373                 3.2160                 1.7165
 IR Inten    --      1.2018               169.8316                13.7153

                     34                     35                     36
                      A                      A                      A
 Frequencies --   1489.4173              1529.7076              1663.3424
 Red. masses --      3.0786                 2.6935                 6.2763
 Frc consts  --      4.0237                 3.7135                10.2311
 IR Inten    --     12.7422                 7.4234                 4.1554

                     37                     38                     39
                      A                      A                      A
 Frequencies --   1675.2324              1840.5725              1851.5616
 Red. masses --      6.3386                10.7654                10.5645
 Frc consts  --     10.4807                21.4876                21.3391
 IR Inten    --     34.7134               318.0421               357.6061

                     40                     41                     42
                      A                      A                      A
 Frequencies --   2957.8184              3190.5732              3217.6304
 Red. masses --      1.0852                 1.0896                 1.0901
 Frc consts  --      5.5935                 6.5353                 6.6493
 IR Inten    --     85.5486                 2.4571                 2.5474

                     43                     44                     45
                      A                      A                      A
 Frequencies --   3230.4941              3233.9120              3820.0146
 Red. masses --      1.0964                 1.0917                 1.0646
 Frc consts  --      6.7413                 6.7268                 9.1534
 IR Inten    --      3.2531                 4.5881               135.0874

 - Thermochemistry -
 -------------------
 Temperature   298.150 Kelvin.  Pressure   1.00000 Atm.
 Atom     1 has atomic number  6 and mass  12.00000

 Molecular mass:   150.03169 amu.
 Principal axes and moments of inertia in atomic units:
                           1         2         3
     Eigenvalues --   940.314752269.088123209.40287
           X            0.99972   0.02350   0.00000
           Y           -0.02350   0.99972   0.00000
           Z            0.00000   0.00000   1.00000
 This molecule is an asymmetric top.
 Rotational symmetry number  1.
 Warning -- assumption of classical behavior for rotation
           may cause significant error
 Rotational temperatures (Kelvin)      0.09211     0.03817     0.02699
 Rotational constants (GHZ):           1.91929     0.79536     0.56233
 Zero-point vibrational energy     330629.0 (Joules/Mol)
                                   79.02222 (Kcal/Mol)
 Warning -- explicit consideration of  12 degrees of freedom as
           vibrations may cause significant error
 Vibrational temperatures:     80.53   168.50   204.74   216.67   352.15
          (Kelvin)            374.91   552.39   615.11   646.14   690.33
                              724.92   861.20   934.04   952.76   994.05
                             1089.87  1123.10  1225.30  1366.79  1392.28
                             1421.66  1471.10  1487.97  1513.56  1603.27
                             1625.57  1703.70  1717.85  1796.05  1883.51
                             1939.25  2014.19  2055.52  2142.94  2200.91
                             2393.18  2410.29  2648.17  2663.98  4255.64
                             4590.52  4629.45  4647.96  4652.88  5496.15

 Zero-point correction=                           0.125930 (Hartree/Particle)
 Thermal correction to Energy=                    0.135034
 Thermal correction to Enthalpy=                  0.135978
 Thermal correction to Gibbs Free Energy=         0.090870
 Sum of electronic and zero-point Energies=           -534.019856
 Sum of electronic and thermal Energies=              -534.010753
 Sum of electronic and thermal Enthalpies=            -534.009808
 Sum of electronic and thermal Free Energies=         -534.054916

                     E (Thermal)             CV                S
                      KCal/Mol        Cal/Mol-Kelvin    Cal/Mol-Kelvin
 Total                   84.735             33.829             94.937
 Electronic               0.000              0.000              0.000
 Translational            0.889              2.981             40.927
 Rotational               0.889              2.981             30.305
 Vibrational             82.958             27.867             23.705
 Vibration     1          0.596              1.975              4.594
 Vibration     2          0.608              1.935              3.147
 Vibration     3          0.616              1.911              2.773
 Vibration     4          0.618              1.902              2.665
 Vibration     5          0.660              1.771              1.768
 Vibration     6          0.669              1.745              1.658
 Vibration     7          0.753              1.504              1.024
 Vibration     8          0.789              1.410              0.867
 Vibration     9          0.808              1.363              0.799
 Vibration    10          0.836              1.295              0.711
 Vibration    11          0.859              1.241              0.649
 Vibration    12          0.957              1.035              0.452

 Optimization completed.
    -- Stationary point found.
 Normal termination of Gaussian 16 at Tue Sep  6 16:58:58 2022.
