 Gaussian 16, Revision C.01,
 Gaussian 16:  ES64L-G16RevC.01  3-Jul-2019

 ------------------------------------
 # opt freq M062x/aug-cc-pvtz pop=nbo
 ------------------------------------

 -----------------
 3-CN_benzoic-acid
 -----------------
 Symbolic Z-matrix:
 Charge =  0 Multiplicity = 1

 SCF Done:  E(RM062X) =  -513.021676212     A.U. after   14 cycles
 SCF Done:  E(RM062X) =  -513.059978757     A.U. after   13 cycles
 SCF Done:  E(RM062X) =  -513.065073581     A.U. after   12 cycles
 SCF Done:  E(RM062X) =  -513.065302288     A.U. after   11 cycles
 SCF Done:  E(RM062X) =  -513.065321805     A.U. after   10 cycles
 SCF Done:  E(RM062X) =  -513.065323046     A.U. after    9 cycles
 Optimization completed.
    -- Stationary point found.
 Normal termination of Gaussian 16 at Tue Sep  6 16:32:28 2022.

 ----------------------------------------------------------------------
 #N Geom=AllCheck Guess=TCheck SCRF=Check GenChk RM062X/Aug-CC-pVTZ Fre
 q
 ----------------------------------------------------------------------

 Structure from the checkpoint file:  "3-CN.chk"
 -----------------
 3-CN_benzoic-acid
 -----------------
 Charge =  0 Multiplicity = 1

                         Standard orientation:
 ---------------------------------------------------------------------
 Center     Atomic      Atomic             Coordinates (Angstroms)
 Number     Number       Type             X           Y           Z
 ---------------------------------------------------------------------
      1          6           0       -0.717993    1.545380   -0.000040
      2          6           0        0.531931    2.142555    0.000055
      3          6           0        1.674561    1.358912    0.000072
      4          6           0        1.560789   -0.030451   -0.000009
      5          6           0        0.308503   -0.637031   -0.000104
      6          6           0       -0.827951    0.158736   -0.000131
      7          6           0       -2.194336   -0.432854   -0.000274
      8          8           0       -3.209091    0.207374    0.000115
      9          8           0       -2.181376   -1.776322    0.000127
     10          6           0        2.745986   -0.841755    0.000008
     11          7           0        3.694376   -1.487266    0.000025
     12          1           0       -1.623704    2.135682   -0.000062
     13          1           0        0.618920    3.219520    0.000116
     14          1           0        2.656226    1.811076    0.000148
     15          1           0        0.224404   -1.713569   -0.000171
     16          1           0       -3.101695   -2.071221    0.000384
 ---------------------------------------------------------------------

 SCF Done:  E(RM062X) =  -513.065323046     A.U. after    1 cycles

 The electronic state is 1-A.
 Alpha  occ. eigenvalues --  -19.69476 -19.63893 -14.76279 -10.70214 -10.61058
 Alpha  occ. eigenvalues --  -10.59212 -10.59155 -10.59108 -10.58818 -10.58458
 Alpha  occ. eigenvalues --  -10.58085  -1.26376  -1.16734  -1.03717  -1.00930
 Alpha  occ. eigenvalues --   -0.91178  -0.89787  -0.78533  -0.75638  -0.71870
 Alpha  occ. eigenvalues --   -0.65735  -0.60902  -0.59284  -0.58740  -0.56530
 Alpha  occ. eigenvalues --   -0.56153  -0.54022  -0.50523  -0.49815  -0.46803
 Alpha  occ. eigenvalues --   -0.46073  -0.44539  -0.43767  -0.42201  -0.41825
 Alpha  occ. eigenvalues --   -0.38356  -0.35310  -0.34098
 Alpha virt. eigenvalues --   -0.05282  -0.03365  -0.01364  -0.00539   0.00787
 Alpha virt. eigenvalues --    0.01503   0.02250   0.02472   0.03544   0.04190
 Alpha virt. eigenvalues --    0.04821   0.05164   0.05492   0.05589   0.06000

 Mulliken charges:
               1
     1  C   -0.668886
     2  C   -0.250164
     3  C   -0.655268
     4  C    1.386677
     5  C   -0.758158
     6  C    1.506391
     7  C    0.492603
     8  O   -0.916944
     9  O   -0.523556
    10  C    0.647499
    11  N   -0.995360
    12  H    0.138943
    13  H    0.285770
    14  H   -0.060996
    15  H    0.072168
    16  H    0.299281
 Sum of Mulliken charges =   0.00000

 Dipole moment (field-independent basis, Debye):
    X=             -2.0597    Y=              1.8185    Z=             -0.0003  Tot=              2.7476
 Quadrupole moment (field-independent basis, Debye-Ang):
   XX=            -79.0483   YY=            -56.2156   ZZ=            -63.9192
   XY=             16.0114   XZ=              0.0004   YZ=             -0.0003

  Exact polarizability:     142.583      -8.470     112.825       0.000       0.001      58.144
 Approx polarizability:     170.955     -16.040     148.955       0.000       0.003      78.395

 Summary of Natural Population Analysis:

                                       Natural Population
                Natural  -----------------------------------------------
    Atom  No    Charge         Core      Valence    Rydberg      Total
 -----------------------------------------------------------------------
      C    1   -0.13190      1.99921     4.11619    0.01650     6.13190
      C    2   -0.20362      1.99927     4.18751    0.01684     6.20362
      C    3   -0.12848      1.99920     4.11397    0.01530     6.12848
      C    4   -0.17782      1.99892     4.15813    0.02077     6.17782
      C    5   -0.11605      1.99913     4.09858    0.01834     6.11605
      C    6   -0.17138      1.99899     4.14630    0.02609     6.17138
      C    7    0.80508      1.99939     3.16268    0.03284     5.19492
      O    8   -0.59195      1.99977     6.56023    0.03195     8.59195
      O    9   -0.69662      1.99978     6.67189    0.02494     8.69662
      C   10    0.26871      1.99925     3.69708    0.03496     5.73129
      N   11   -0.28950      1.99961     5.25806    0.03183     7.28950
      H   12    0.23923      0.00000     0.75801    0.00276     0.76077
      H   13    0.22178      0.00000     0.77591    0.00231     0.77822
      H   14    0.22667      0.00000     0.77092    0.00241     0.77333
      H   15    0.24342      0.00000     0.75364    0.00294     0.75658
      H   16    0.50242      0.00000     0.49440    0.00318     0.49758
 =======================================================================
   * Total *    0.00000     21.99253    53.72350    0.28397    76.00000

                      1                      2                      3
                      A                      A                      A
 Frequencies --     57.7400               122.9385               134.6666
 Red. masses --     11.8302                10.1112                 5.5718
 Frc consts  --      0.0232                 0.0900                 0.0595
 IR Inten    --      4.1857                 6.7924                 0.5964

                      4                      5                      6
                      A                      A                      A
 Frequencies --    175.0021               232.6773               380.0508
 Red. masses --      4.8070                 6.2267                 8.8713
 Frc consts  --      0.0867                 0.1986                 0.7550
 IR Inten    --      1.9369                 1.0735                 6.7676

                      7                      8                      9
                      A                      A                      A
 Frequencies --    394.0928               426.6637               444.6730
 Red. masses --      4.4298                 3.2288                 9.0737
 Frc consts  --      0.4054                 0.3463                 1.0571
 IR Inten    --      0.6680                 9.9382                 1.3966

                     10                     11                     12
                      A                      A                      A
 Frequencies --    506.3930               565.8224               588.2227
 Red. masses --      7.7619                 2.1123                 6.7927
 Frc consts  --      1.1727                 0.3984                 1.3848
 IR Inten    --      3.6017                14.6189                 6.8924

                     13                     14                     15
                      A                      A                      A
 Frequencies --    616.7326               656.4376               699.0619
 Red. masses --      1.9212                 5.2316                 2.3063
 Frc consts  --      0.4305                 1.3282                 0.6640
 IR Inten    --     84.7777                39.9193                 8.6437

                     16                     17                     18
                      A                      A                      A
 Frequencies --    731.5764               787.8370               855.4346
 Red. masses --      5.4265                 3.1976                 1.7451
 Frc consts  --      1.7112                 1.1694                 0.7524
 IR Inten    --     22.4977                72.9435                 4.4629

                     19                     20                     21
                      A                      A                      A
 Frequencies --    905.1257               965.7918               988.4188
 Red. masses --      4.8699                 1.4928                 1.4057
 Frc consts  --      2.3506                 0.8204                 0.8091
 IR Inten    --      2.4494                 5.6592                 0.0042

                     22                     23                     24
                      A                      A                      A
 Frequencies --   1023.0758              1036.2385              1114.4196
 Red. masses --      6.2604                 1.3628                 1.9697
 Frc consts  --      3.8607                 0.8622                 1.4413
 IR Inten    --      0.9914                 0.1056                58.8056

                     25                     26                     27
                      A                      A                      A
 Frequencies --   1135.0940              1188.9928              1195.2686
 Red. masses --      1.7374                 1.1561                 1.8757
 Frc consts  --      1.3189                 0.9630                 1.5788
 IR Inten    --      9.4246                 3.5800               210.5963

                     28                     29                     30
                      A                      A                      A
 Frequencies --   1250.3162              1309.6750              1338.9542
 Red. masses --      2.7526                 2.2611                 2.1143
 Frc consts  --      2.5354                 2.2850                 2.2333
 IR Inten    --     33.6167                 2.6495                 2.7627

                     31                     32                     33
                      A                      A                      A
 Frequencies --   1400.7292              1475.2287              1530.2210
 Red. masses --      3.2155                 3.5395                 2.7075
 Frc consts  --      3.7172                 4.5384                 3.7353
 IR Inten    --    181.9013                 3.1369                11.7444

                     34                     35                     36
                      A                      A                      A
 Frequencies --   1656.7556              1676.5919              1856.3657
 Red. masses --      6.2839                 6.3173                10.6341
 Frc consts  --     10.1624                10.4625                21.5913
 IR Inten    --      8.9984                 3.3345               395.7176

                     37                     38                     39
                      A                      A                      A
 Frequencies --   2409.3221              3215.8604              3226.3051
 Red. masses --     12.6853                 1.0882                 1.0925
 Frc consts  --     43.3850                 6.6307                 6.6999
 IR Inten    --     25.8851                 1.4146                 1.1258

                     40                     41                     42
                      A                      A                      A
 Frequencies --   3235.2022              3241.2265              3817.9481
 Red. masses --      1.0976                 1.0930                 1.0647
 Frc consts  --      6.7684                 6.7653                 9.1437
 IR Inten    --      1.7459                 2.6403               142.4516

 - Thermochemistry -
 -------------------
 Temperature   298.150 Kelvin.  Pressure   1.00000 Atm.
 Atom     1 has atomic number  6 and mass  12.00000

 Molecular mass:   147.03203 amu.
 Principal axes and moments of inertia in atomic units:
                           1         2         3
     Eigenvalues --   818.966082435.929493254.89556
           X            0.99979   0.02056   0.00000
           Y           -0.02056   0.99979   0.00000
           Z            0.00000   0.00000   1.00000
 This molecule is an asymmetric top.
 Rotational symmetry number  1.
 Warning -- assumption of classical behavior for rotation
           may cause significant error
 Rotational temperatures (Kelvin)      0.10576     0.03556     0.02661
 Rotational constants (GHZ):           2.20368     0.74088     0.55447
 Zero-point vibrational energy     302470.7 (Joules/Mol)
                                   72.29223 (Kcal/Mol)
 Warning -- explicit consideration of  13 degrees of freedom as
           vibrations may cause significant error
 Vibrational temperatures:     83.08   176.88   193.76   251.79   334.77
          (Kelvin)            546.81   567.01   613.87   639.79   728.59
                              814.09   846.32   887.34   944.47  1005.79
                             1052.58  1133.52  1230.78  1302.27  1389.56
                             1422.11  1471.98  1490.92  1603.40  1633.15
                             1710.70  1719.72  1798.93  1884.33  1926.46
                             2015.34  2122.53  2201.65  2383.70  2412.24
                             2670.90  3466.48  4626.91  4641.93  4654.73
                             4663.40  5493.18

 Zero-point correction=                           0.115205 (Hartree/Particle)
 Thermal correction to Energy=                    0.124072
 Thermal correction to Enthalpy=                  0.125016
 Thermal correction to Gibbs Free Energy=         0.080475
 Sum of electronic and zero-point Energies=           -512.950118
 Sum of electronic and thermal Energies=              -512.941251
 Sum of electronic and thermal Enthalpies=            -512.940307
 Sum of electronic and thermal Free Energies=         -512.984848

                     E (Thermal)             CV                S
                      KCal/Mol        Cal/Mol-Kelvin    Cal/Mol-Kelvin
 Total                   77.856             33.113             93.745
 Electronic               0.000              0.000              0.000
 Translational            0.889              2.981             40.867
 Rotational               0.889              2.981             30.252
 Vibrational             76.079             27.151             22.626
 Vibration     1          0.596              1.974              4.533
 Vibration     2          0.610              1.930              3.054
 Vibration     3          0.613              1.919              2.878
 Vibration     4          0.627              1.873              2.381
 Vibration     5          0.653              1.791              1.858
 Vibration     6          0.750              1.513              1.039
 Vibration     7          0.761              1.483              0.985
 Vibration     8          0.788              1.412              0.870
 Vibration     9          0.804              1.373              0.812
 Vibration    10          0.862              1.236              0.642
 Vibration    11          0.922              1.105              0.512
 Vibration    12          0.945              1.057              0.470
 Vibration    13          0.976              0.997              0.422

 Optimization completed.
    -- Stationary point found.
 Normal termination of Gaussian 16 at Tue Sep  6 16:56:57 2022.
