 Gaussian 16, Revision C.01,
 Gaussian 16:  ES64L-G16RevC.01  3-Jul-2019

 ------------------------------------
 # opt freq M062x/aug-cc-pvtz pop=nbo
 ------------------------------------

 ------------------
 3-NO2_benzoic-acid
 ------------------
 Symbolic Z-matrix:
 Charge =  0 Multiplicity = 1

 SCF Done:  E(RM062X) =  -625.243095458     A.U. after   15 cycles
 SCF Done:  E(RM062X) =  -625.302642530     A.U. after   13 cycles
 SCF Done:  E(RM062X) =  -625.325491611     A.U. after   13 cycles
 SCF Done:  E(RM062X) =  -625.329592321     A.U. after   12 cycles
 SCF Done:  E(RM062X) =  -625.329977950     A.U. after   12 cycles
 SCF Done:  E(RM062X) =  -625.329996244     A.U. after   12 cycles
 SCF Done:  E(RM062X) =  -625.330024046     A.U. after   11 cycles
 SCF Done:  E(RM062X) =  -625.330058575     A.U. after   10 cycles
 SCF Done:  E(RM062X) =  -625.330059542     A.U. after    9 cycles
 Optimization completed.
    -- Stationary point found.
 Normal termination of Gaussian 16 at Tue Sep  6 16:51:25 2022.

 ----------------------------------------------------------------------
 #N Geom=AllCheck Guess=TCheck SCRF=Check GenChk RM062X/Aug-CC-pVTZ Fre
 q
 ----------------------------------------------------------------------

 Structure from the checkpoint file:  "3-NO2.chk"
 ------------------
 3-NO2_benzoic-acid
 ------------------
 Charge =  0 Multiplicity = 1

                         Standard orientation:
 ---------------------------------------------------------------------
 Center     Atomic      Atomic             Coordinates (Angstroms)
 Number     Number       Type             X           Y           Z
 ---------------------------------------------------------------------
      1          6           0       -1.116776    1.602046   -0.000298
      2          6           0        0.104861    2.255785   -0.000301
      3          6           0        1.283409    1.524893   -0.000136
      4          6           0        1.203695    0.143994   -0.000026
      5          6           0        0.001717   -0.536097   -0.000084
      6          6           0       -1.167671    0.211590   -0.000206
      7          6           0       -2.507834   -0.438555   -0.000244
      8          8           0       -3.548086    0.159440    0.000789
      9          8           0       -2.436252   -1.778989   -0.000152
     10          7           0        2.456960   -0.638067    0.000146
     11          8           0        2.361668   -1.843697   -0.000582
     12          8           0        3.497949   -0.021013    0.000838
     13          1           0       -2.047529    2.152087   -0.000375
     14          1           0        0.143155    3.335411   -0.000421
     15          1           0        2.252039    2.001024   -0.000089
     16          1           0       -0.014647   -1.614732   -0.000046
     17          1           0       -3.342376   -2.115191    0.000519
 ---------------------------------------------------------------------

 SCF Done:  E(RM062X) =  -625.330059542     A.U. after    1 cycles

 The electronic state is 1-A.
 Alpha  occ. eigenvalues --  -19.69557 -19.67663 -19.67648 -19.63992 -15.01466
 Alpha  occ. eigenvalues --  -10.70332 -10.62592 -10.59453 -10.59295 -10.59257
 Alpha  occ. eigenvalues --  -10.58797 -10.58401  -1.38916  -1.26481  -1.20224
 Alpha  occ. eigenvalues --   -1.16844  -1.02425  -0.93375  -0.90436  -0.81606
 Alpha  occ. eigenvalues --   -0.78712  -0.73054  -0.69115  -0.66642  -0.64571
 Alpha  occ. eigenvalues --   -0.62461  -0.61088  -0.60415  -0.58924  -0.56622
 Alpha  occ. eigenvalues --   -0.55860  -0.54527  -0.50746  -0.48422  -0.46963
 Alpha  occ. eigenvalues --   -0.45973  -0.42541  -0.40725  -0.39856  -0.39851
 Alpha  occ. eigenvalues --   -0.38417  -0.35709  -0.35489
 Alpha virt. eigenvalues --   -0.07008  -0.04564  -0.01320  -0.00475   0.00874
 Alpha virt. eigenvalues --    0.01048   0.01527   0.02349   0.02628   0.04232
 Alpha virt. eigenvalues --    0.04846   0.05043   0.05712   0.05776   0.06538

 Mulliken charges:
               1
     1  C   -0.839375
     2  C   -0.221921
     3  C   -0.270214
     4  C    0.539798
     5  C   -0.549877
     6  C    1.568788
     7  C    0.376217
     8  O   -0.920644
     9  O   -0.534815
    10  N    0.764373
    11  O   -0.667407
    12  O   -0.670100
    13  H    0.168002
    14  H    0.159125
    15  H    0.366764
    16  H    0.431850
    17  H    0.299435
 Sum of Mulliken charges =   0.00000

 Dipole moment (field-independent basis, Debye):
    X=             -2.1349    Y=              1.6720    Z=             -0.0011  Tot=              2.7117
 Quadrupole moment (field-independent basis, Debye-Ang):
   XX=            -82.4732   YY=            -60.8397   ZZ=            -67.9879
   XY=             11.4748   XZ=              0.0012   YZ=             -0.0062

  Exact polarizability:     139.565       1.253     117.159       0.002       0.004      57.357
 Approx polarizability:     167.045       3.887     161.086       0.004       0.013      78.520

 Summary of Natural Population Analysis:

                                       Natural Population
                Natural  -----------------------------------------------
    Atom  No    Charge         Core      Valence    Rydberg      Total
 -----------------------------------------------------------------------
      C    1   -0.12656      1.99921     4.11088    0.01646     6.12656
      C    2   -0.20084      1.99928     4.18503    0.01653     6.20084
      C    3   -0.16007      1.99916     4.14390    0.01701     6.16007
      C    4    0.03268      1.99878     3.94167    0.02686     5.96732
      C    5   -0.14867      1.99908     4.12931    0.02028     6.14867
      C    6   -0.16831      1.99900     4.14341    0.02590     6.16831
      C    7    0.80468      1.99940     3.16317    0.03276     5.19532
      O    8   -0.59187      1.99977     6.56017    0.03193     8.59187
      O    9   -0.69417      1.99978     6.66932    0.02506     8.69417
      N   10    0.53686      1.99961     4.41214    0.05138     6.46314
      O   11   -0.38034      1.99982     6.35924    0.02128     8.38034
      O   12   -0.38423      1.99982     6.36315    0.02126     8.38423
      H   13    0.24013      0.00000     0.75709    0.00278     0.75987
      H   14    0.22263      0.00000     0.77511    0.00226     0.77737
      H   15    0.24966      0.00000     0.74702    0.00332     0.75034
      H   16    0.26578      0.00000     0.73030    0.00392     0.73422
      H   17    0.50263      0.00000     0.49420    0.00317     0.49737
 =======================================================================
   * Total *    0.00000     23.99271    61.68512    0.32217    86.00000

                      1                      2                      3
                      A                      A                      A
 Frequencies --     49.1063                58.1050               149.1187
 Red. masses --     13.3572                11.9011                 5.1414
 Frc consts  --      0.0190                 0.0237                 0.0674
 IR Inten    --      0.1139                 3.6947                 0.0237

                      4                      5                      6
                      A                      A                      A
 Frequencies --    149.7434               192.0647               287.0636
 Red. masses --      9.3268                 4.6374                 7.2696
 Frc consts  --      0.1232                 0.1008                 0.3530
 IR Inten    --      3.4590                 1.5820                 0.9492

                      7                      8                      9
                      A                      A                      A
 Frequencies --    355.9456               404.3449               425.2201
 Red. masses --     11.7222                 7.5649                 2.9265
 Frc consts  --      0.8750                 0.7287                 0.3118
 IR Inten    --      2.4513                 2.5213                 3.7980

                     10                     11                     12
                      A                      A                      A
 Frequencies --    466.7951               498.0862               562.6743
 Red. masses --      4.0373                 8.9156                 6.0615
 Frc consts  --      0.5183                 1.3032                 1.1307
 IR Inten    --      5.5469                11.3367                 0.4339

                     13                     14                     15
                      A                      A                      A
 Frequencies --    596.4878               648.1706               679.3741
 Red. masses --      1.2835                 5.3637                 2.7388
 Frc consts  --      0.2691                 1.3277                 0.7448
 IR Inten    --     77.4060                42.6150                 0.1457

                     16                     17                     18
                      A                      A                      A
 Frequencies --    696.9612               759.2941               818.1826
 Red. masses --      5.8945                 2.5486                 7.3171
 Frc consts  --      1.6870                 0.8657                 2.8860
 IR Inten    --     32.9056               107.7623                15.4523

                     19                     20                     21
                      A                      A                      A
 Frequencies --    818.2588               859.2957               931.3047
 Red. masses --      7.4686                 1.6985                 6.6429
 Frc consts  --      2.9463                 0.7389                 3.3946
 IR Inten    --     11.6820                 3.4441                21.5267

                     22                     23                     24
                      A                      A                      A
 Frequencies --    976.7417               994.6840              1024.5416
 Red. masses --      1.5289                 1.4170                 6.3196
 Frc consts  --      0.8594                 0.8260                 3.9084
 IR Inten    --      5.1511                 0.5317                 0.7987

                     25                     26                     27
                      A                      A                      A
 Frequencies --   1035.9647              1106.3675              1122.1508
 Red. masses --      1.3649                 1.7218                 1.5608
 Frc consts  --      0.8631                 1.2417                 1.1580
 IR Inten    --      0.0974                59.3525                20.5685

                     28                     29                     30
                      A                      A                      A
 Frequencies --   1164.7513              1183.8085              1220.9837
 Red. masses --      3.0043                 1.2260                 2.0210
 Frc consts  --      2.4014                 1.0123                 1.7752
 IR Inten    --    102.3449                 7.7552               150.5277

                     31                     32                     33
                      A                      A                      A
 Frequencies --   1307.6139              1349.4986              1399.6967
 Red. masses --      1.3557                 6.1004                 3.0672
 Frc consts  --      1.3658                 6.5457                 3.5405
 IR Inten    --      4.3467                10.0622               178.9662

                     34                     35                     36
                      A                      A                      A
 Frequencies --   1461.8207              1483.4392              1531.3453
 Red. masses --     13.7189                 3.2794                 2.8674
 Frc consts  --     17.2725                 4.2520                 3.9618
 IR Inten    --    254.0617                 0.3236                20.7463

                     37                     38                     39
                      A                      A                      A
 Frequencies --   1654.5853              1665.6754              1710.9463
 Red. masses --      7.5008                 8.0950                 9.7141
 Frc consts  --     12.0987                13.2326                16.7542
 IR Inten    --     45.0732                86.3174               210.0708

                     40                     41                     42
                      A                      A                      A
 Frequencies --   1856.0780              3220.9688              3233.4968
 Red. masses --     10.6621                 1.0887                 1.0946
 Frc consts  --     21.6414                 6.6550                 6.7427
 IR Inten    --    387.8464                 1.5459                 3.7165

                     43                     44                     45
                      A                      A                      A
 Frequencies --   3249.9896              3261.4902              3815.9344
 Red. masses --      1.0946                 1.0921                 1.0647
 Frc consts  --      6.8118                 6.8446                 9.1342
 IR Inten    --      4.8152                12.1972               143.6023

 - Thermochemistry -
 -------------------
 Temperature   298.150 Kelvin.  Pressure   1.00000 Atm.
 Atom     1 has atomic number  6 and mass  12.00000

 Molecular mass:   167.02186 amu.
 Principal axes and moments of inertia in atomic units:
                           1         2         3
     Eigenvalues --   943.769482965.736023909.50528
           X            0.99991   0.01333   0.00000
           Y           -0.01333   0.99991  -0.00001
           Z            0.00000   0.00001   1.00000
 This molecule is an asymmetric top.
 Rotational symmetry number  1.
 Warning -- assumption of classical behavior for rotation
           may cause significant error
 Rotational temperatures (Kelvin)      0.09177     0.02920     0.02215
 Rotational constants (GHZ):           1.91227     0.60853     0.46163
 Zero-point vibrational energy     313649.9 (Joules/Mol)
                                   74.96413 (Kcal/Mol)
 Warning -- explicit consideration of  13 degrees of freedom as
           vibrations may cause significant error
 Vibrational temperatures:     70.65    83.60   214.55   215.45   276.34
          (Kelvin)            413.02   512.13   581.76   611.80   671.61
                              716.63   809.56   858.21   932.57   977.47
                             1002.77  1092.45  1177.18  1177.29  1236.33
                             1339.94  1405.31  1431.13  1474.09  1490.52
                             1591.82  1614.52  1675.82  1703.24  1756.72
                             1881.36  1941.63  2013.85  2103.23  2134.34
                             2203.26  2380.58  2396.54  2461.67  2670.48
                             4634.26  4652.28  4676.01  4692.56  5490.28

 Zero-point correction=                           0.119463 (Hartree/Particle)
 Thermal correction to Energy=                    0.129026
 Thermal correction to Enthalpy=                  0.129970
 Thermal correction to Gibbs Free Energy=         0.083189
 Sum of electronic and zero-point Energies=           -625.210597
 Sum of electronic and thermal Energies=              -625.201033
 Sum of electronic and thermal Enthalpies=            -625.200089
 Sum of electronic and thermal Free Energies=         -625.246871

                     E (Thermal)             CV                S
                      KCal/Mol        Cal/Mol-Kelvin    Cal/Mol-Kelvin
 Total                   80.965             35.450             98.460
 Electronic               0.000              0.000              0.000
 Translational            0.889              2.981             41.247
 Rotational               0.889              2.981             30.771
 Vibrational             79.188             29.489             26.442
 Vibration     1          0.595              1.978              4.853
 Vibration     2          0.596              1.974              4.521
 Vibration     3          0.618              1.904              2.683
 Vibration     4          0.618              1.903              2.675
 Vibration     5          0.634              1.851              2.208
 Vibration     6          0.684              1.698              1.491
 Vibration     7          0.731              1.563              1.140
 Vibration     8          0.770              1.461              0.947
 Vibration     9          0.787              1.415              0.874
 Vibration    10          0.824              1.324              0.747
 Vibration    11          0.854              1.254              0.663
 Vibration    12          0.918              1.112              0.519
 Vibration    13          0.954              1.039              0.456

 Optimization completed.
    -- Stationary point found.
 Normal termination of Gaussian 16 at Tue Sep  6 17:23:31 2022.
