 Gaussian 16, Revision C.01,
 Gaussian 16:  ES64L-G16RevC.01  3-Jul-2019

 ------------------------------------
 # opt freq M062x/aug-cc-pvtz pop=nbo
 ------------------------------------

 ------------------
 4-CF3_benzoic-acid
 ------------------
 Symbolic Z-matrix:
 Charge =  0 Multiplicity = 1

 SCF Done:  E(RM062X) =  -757.875140768     A.U. after   14 cycles
 SCF Done:  E(RM062X) =  -757.903536383     A.U. after   12 cycles
 SCF Done:  E(RM062X) =  -757.906139404     A.U. after   11 cycles
 SCF Done:  E(RM062X) =  -757.906284470     A.U. after   10 cycles
 SCF Done:  E(RM062X) =  -757.906296590     A.U. after    9 cycles
 SCF Done:  E(RM062X) =  -757.906298618     A.U. after    8 cycles
 Optimization completed.
    -- Stationary point found.
 Normal termination of Gaussian 16 at Mon Sep  5 20:29:37 2022.

 ----------------------------------------------------------------------
 #N Geom=AllCheck Guess=TCheck SCRF=Check GenChk RM062X/Aug-CC-pVTZ Fre
 q
 ----------------------------------------------------------------------

 Structure from the checkpoint file:  "4-CF3.chk"
 ------------------
 4-CF3_benzoic-acid
 ------------------
 Charge =  0 Multiplicity = 1

                         Standard orientation:
 ---------------------------------------------------------------------
 Center     Atomic      Atomic             Coordinates (Angstroms)
 Number     Number       Type             X           Y           Z
 ---------------------------------------------------------------------
      1          6           0        1.012257    1.242925   -0.000001
      2          6           0       -0.373309    1.243110   -0.000010
      3          6           0       -1.051395    0.034390   -0.000016
      4          6           0       -0.363783   -1.172752   -0.000012
      5          6           0        1.019078   -1.171346   -0.000001
      6          6           0        1.705485    0.039836    0.000004
      7          6           0        3.193500    0.097007    0.000014
      8          8           0        3.834761    1.111377   -0.000002
      9          8           0        3.764723   -1.120462   -0.000001
     10          9           0       -3.025086   -0.656053   -1.074774
     11          6           0       -2.554371   -0.008056   -0.000001
     12          9           0       -3.099605    1.210808   -0.000197
     13          9           0       -3.025072   -0.655697    1.074994
     14          1           0        1.572206    2.167323    0.000001
     15          1           0       -0.923237    2.172543   -0.000017
     16          1           0       -0.912452   -2.104892   -0.000019
     17          1           0        1.569292   -2.100393    0.000002
     18          1           0        4.721411   -0.984113   -0.000009
 ---------------------------------------------------------------------

 SCF Done:  E(RM062X) =  -757.906298618     A.U. after    1 cycles

 The electronic state is 1-A.
 Alpha  occ. eigenvalues --  -25.28995 -25.28565 -25.28564 -19.69082 -19.63470
 Alpha  occ. eigenvalues --  -10.80850 -10.69743 -10.59225 -10.58523 -10.57920
 Alpha  occ. eigenvalues --  -10.57829 -10.57809 -10.57589  -1.47829  -1.38703
 Alpha  occ. eigenvalues --   -1.38250  -1.25950  -1.16284  -1.00939  -0.92156
 Alpha  occ. eigenvalues --   -0.88295  -0.83519  -0.77401  -0.73923  -0.71293
 Alpha  occ. eigenvalues --   -0.70168  -0.69469  -0.67309  -0.62823  -0.60132
 Alpha  occ. eigenvalues --   -0.58479  -0.58471  -0.56046  -0.55694  -0.55203
 Alpha  occ. eigenvalues --   -0.54337  -0.54174  -0.53268  -0.52319  -0.51996
 Alpha  occ. eigenvalues --   -0.49159  -0.47389  -0.44972  -0.43722  -0.42041
 Alpha  occ. eigenvalues --   -0.37965  -0.34842  -0.34295
 Alpha virt. eigenvalues --   -0.04827  -0.01178  -0.01055   0.00029   0.00479
 Alpha virt. eigenvalues --    0.02039   0.02478   0.02578   0.03533   0.04010
 Alpha virt. eigenvalues --    0.04532   0.05531   0.05707   0.06166   0.06481

 Mulliken charges:
               1
     1  C   -0.890277
     2  C   -0.486066
     3  C    1.257816
     4  C   -0.654292
     5  C   -0.584392
     6  C    1.921533
     7  C    0.430305
     8  O   -0.924593
     9  O   -0.538886
    10  F   -0.322626
    11  C    0.562132
    12  F   -0.309927
    13  F   -0.322613
    14  H    0.086268
    15  H    0.094685
    16  H    0.294082
    17  H    0.085239
    18  H    0.301611
 Sum of Mulliken charges =   0.00000

 Dipole moment (field-independent basis, Debye):
    X=              1.5193    Y=             -1.3027    Z=              0.0000  Tot=              2.0013
 Quadrupole moment (field-independent basis, Debye-Ang):
   XX=            -76.3300   YY=            -69.0101   ZZ=            -74.7175
   XY=             -8.0386   XZ=              0.0001   YZ=              0.0000

  Exact polarizability:     137.303       1.230     103.910       0.000       0.000      62.534
 Approx polarizability:     151.458       3.429     144.917       0.000       0.000      83.917

 Summary of Natural Population Analysis:

                                       Natural Population
                Natural  -----------------------------------------------
    Atom  No    Charge         Core      Valence    Rydberg      Total
 -----------------------------------------------------------------------
      C    1   -0.15027      1.99921     4.13149    0.01957     6.15027
      C    2   -0.18345      1.99918     4.16799    0.01628     6.18345
      C    3   -0.12384      1.99901     4.09848    0.02636     6.12384
      C    4   -0.18020      1.99918     4.16443    0.01658     6.18020
      C    5   -0.16142      1.99921     4.14271    0.01950     6.16142
      C    6   -0.15910      1.99899     4.13462    0.02549     6.15910
      C    7    0.80403      1.99939     3.16385    0.03273     5.19597
      O    8   -0.59318      1.99977     6.56166    0.03175     8.59318
      O    9   -0.69817      1.99978     6.67353    0.02486     8.69817
      F   10   -0.34302      1.99993     7.33614    0.00696     9.34302
      C   11    1.03928      1.99922     2.91125    0.05025     4.96072
      F   12   -0.34094      1.99992     7.33406    0.00696     9.34094
      F   13   -0.34302      1.99993     7.33614    0.00696     9.34302
      H   14    0.23890      0.00000     0.75828    0.00282     0.76110
      H   15    0.23232      0.00000     0.76491    0.00277     0.76768
      H   16    0.22716      0.00000     0.76988    0.00296     0.77284
      H   17    0.23380      0.00000     0.76334    0.00285     0.76620
      H   18    0.50113      0.00000     0.49564    0.00323     0.49887
 =======================================================================
   * Total *    0.00000     25.99272    69.70841    0.29887    96.00000

                      1                      2                      3
                      A                      A                      A
 Frequencies --      8.0478                62.9148                72.5628
 Red. masses --      8.3343                 6.9016                 9.3659
 Frc consts  --      0.0003                 0.0161                 0.0291
 IR Inten    --      0.4317                 0.7556                 0.8163

                      4                      5                      6
                      A                      A                      A
 Frequencies --    142.1569               196.8975               242.6953
 Red. masses --      9.8995                 8.2927                 7.7620
 Frc consts  --      0.1179                 0.1894                 0.2694
 IR Inten    --      1.7008                 0.2264                 0.5812

                      7                      8                      9
                      A                      A                      A
 Frequencies --    265.2457               357.6773               404.1233
 Red. masses --     11.7520                 5.7467                10.2314
 Frc consts  --      0.4871                 0.4332                 0.9845
 IR Inten    --      1.1865                 4.4801                 3.1526

                     10                     11                     12
                      A                      A                      A
 Frequencies --    410.1059               477.9026               493.7678
 Red. masses --      2.8547                 6.9772                 5.1126
 Frc consts  --      0.2829                 0.9389                 0.7344
 IR Inten    --      0.5121                31.8463                 7.3940

                     13                     14                     15
                      A                      A                      A
 Frequencies --    509.8744               581.8070               591.2007
 Red. masses --      7.7925                 1.8341                11.0848
 Frc consts  --      1.1936                 0.3658                 2.2827
 IR Inten    --      3.9757                60.6734                 0.5866

                     16                     17                     18
                      A                      A                      A
 Frequencies --    614.0646               644.5043               666.9488
 Red. masses --      2.0993                 7.2032                 5.2778
 Frc consts  --      0.4664                 1.7629                 1.3832
 IR Inten    --      8.0867                 0.3118                17.4106

                     19                     20                     21
                      A                      A                      A
 Frequencies --    728.8489               758.1371               805.1611
 Red. masses --      3.1903                 7.1006                 4.1815
 Frc consts  --      0.9985                 2.4046                 1.5972
 IR Inten    --     55.1194                48.3446                47.3741

                     22                     23                     24
                      A                      A                      A
 Frequencies --    827.6626               877.5730               902.8674
 Red. masses --      6.7746                 1.2800                 1.8830
 Frc consts  --      2.7343                 0.5808                 0.9044
 IR Inten    --      5.2564                 0.4271                23.9422

                     25                     26                     27
                      A                      A                      A
 Frequencies --   1009.7144              1023.2534              1039.9516
 Red. masses --      1.3658                 1.3737                 3.6101
 Frc consts  --      0.8204                 0.8475                 2.3004
 IR Inten    --      0.0873                 0.0989                32.4662

                     28                     29                     30
                      A                      A                      A
 Frequencies --   1107.4625              1130.5324              1143.8967
 Red. masses --      4.1536                 1.6782                 2.6721
 Frc consts  --      3.0014                 1.2638                 2.0601
 IR Inten    --     82.2532                83.5369                40.9156

                     31                     32                     33
                      A                      A                      A
 Frequencies --   1201.1469              1203.5733              1222.7638
 Red. masses --      1.2427                12.8295                 1.5761
 Frc consts  --      1.0564                10.9498                 1.3884
 IR Inten    --     96.1388               257.0400               175.9416

                     34                     35                     36
                      A                      A                      A
 Frequencies --   1230.5431              1334.9682              1339.1251
 Red. masses --      8.2631                 1.6332                 3.3398
 Frc consts  --      7.3720                 1.7148                 3.5287
 IR Inten    --    172.5113                 0.0673                15.7526

                     37                     38                     39
                      A                      A                      A
 Frequencies --   1364.3458              1400.8256              1456.7011
 Red. masses --      4.2528                 3.6470                 3.4402
 Frc consts  --      4.6642                 4.2165                 4.3011
 IR Inten    --    447.9643                45.2447                46.7097

                     40                     41                     42
                      A                      A                      A
 Frequencies --   1565.8842              1658.2962              1694.9708
 Red. masses --      2.8680                 7.7004                 6.2907
 Frc consts  --      4.1434                12.4763                10.6481
 IR Inten    --     18.7391                 6.9219                 0.7681

                     43                     44                     45
                      A                      A                      A
 Frequencies --   1854.7548              3214.9940              3227.1096
 Red. masses --     10.5637                 1.0908                 1.0894
 Frc consts  --     21.4111                 6.6429                 6.6846
 IR Inten    --    375.6943                 0.1545                 1.1623

                     46                     47                     48
                      A                      A                      A
 Frequencies --   3240.5214              3242.5510              3815.4911
 Red. masses --      1.0949                 1.0943                 1.0646
 Frc consts  --      6.7740                 6.7788                 9.1317
 IR Inten    --      0.1240                 0.5057               137.5872

 - Thermochemistry -
 -------------------
 Temperature   298.150 Kelvin.  Pressure   1.00000 Atm.
 Atom     1 has atomic number  6 and mass  12.00000

 Molecular mass:   190.02416 amu.
 Principal axes and moments of inertia in atomic units:
                           1         2         3
     Eigenvalues --   776.662644788.326415251.44549
           X            0.99999  -0.00432   0.00000
           Y            0.00432   0.99999   0.00000
           Z            0.00000   0.00000   1.00000
 This molecule is an asymmetric top.
 Rotational symmetry number  1.
 Warning -- assumption of classical behavior for rotation
           may cause significant error
 Rotational temperatures (Kelvin)      0.11152     0.01809     0.01649
 Rotational constants (GHZ):           2.32371     0.37690     0.34367
 Zero-point vibrational energy     319200.3 (Joules/Mol)
                                   76.29071 (Kcal/Mol)
 Warning -- explicit consideration of  16 degrees of freedom as
           vibrations may cause significant error
 Vibrational temperatures:     11.58    90.52   104.40   204.53   283.29
          (Kelvin)            349.18   381.63   514.62   581.44   590.05
                              687.60   710.42   733.60   837.09   850.61
                              883.50   927.30   959.59  1048.65  1090.79
                             1158.45  1190.82  1262.63  1299.02  1452.75
                             1472.23  1496.26  1593.39  1626.58  1645.81
                             1728.18  1731.67  1759.28  1770.48  1920.72
                             1926.70  1962.99  2015.48  2095.87  2252.96
                             2385.92  2438.68  2668.58  4625.66  4643.09
                             4662.39  4665.31  5489.64

 Zero-point correction=                           0.121577 (Hartree/Particle)
 Thermal correction to Energy=                    0.132248
 Thermal correction to Enthalpy=                  0.133192
 Thermal correction to Gibbs Free Energy=         0.082238
 Sum of electronic and zero-point Energies=           -757.784722
 Sum of electronic and thermal Energies=              -757.774051
 Sum of electronic and thermal Enthalpies=            -757.773107
 Sum of electronic and thermal Free Energies=         -757.824061

                     E (Thermal)             CV                S
                      KCal/Mol        Cal/Mol-Kelvin    Cal/Mol-Kelvin
 Total                   82.987             39.488            107.241
 Electronic               0.000              0.000              0.000
 Translational            0.889              2.981             41.632
 Rotational               0.889              2.981             31.346
 Vibrational             81.209             33.527             34.263
 Vibration     1          0.593              1.987              8.443
 Vibration     2          0.597              1.972              4.364
 Vibration     3          0.599              1.967              4.083
 Vibration     4          0.616              1.911              2.775
 Vibration     5          0.636              1.844              2.162
 Vibration     6          0.659              1.775              1.783
 Vibration     7          0.671              1.737              1.627
 Vibration     8          0.733              1.559              1.132
 Vibration     9          0.769              1.461              0.948
 Vibration    10          0.774              1.448              0.926
 Vibration    11          0.834              1.299              0.716
 Vibration    12          0.849              1.264              0.674
 Vibration    13          0.865              1.228              0.634
 Vibration    14          0.939              1.071              0.482
 Vibration    15          0.949              1.051              0.465
 Vibration    16          0.973              1.002              0.426

 Optimization completed.
    -- Stationary point found.
 Normal termination of Gaussian 16 at Mon Sep  5 21:07:34 2022.
