 Gaussian 16, Revision C.01,
 Gaussian 16:  ES64L-G16RevC.01  3-Jul-2019

 ------------------------------------
 # opt freq M062x/aug-cc-pvtz pop=nbo
 ------------------------------------

 -----------------
 4-CN_benzoic-acid
 -----------------
 Symbolic Z-matrix:
 Charge =  0 Multiplicity = 1

 SCF Done:  E(RM062X) =  -513.021058432     A.U. after   14 cycles
 SCF Done:  E(RM062X) =  -513.059646711     A.U. after   13 cycles
 SCF Done:  E(RM062X) =  -513.064908751     A.U. after   12 cycles
 SCF Done:  E(RM062X) =  -513.065151382     A.U. after   10 cycles
 SCF Done:  E(RM062X) =  -513.065173500     A.U. after   10 cycles
 SCF Done:  E(RM062X) =  -513.065174704     A.U. after    8 cycles
 Optimization completed.
    -- Stationary point found.
 Normal termination of Gaussian 16 at Mon Sep  5 20:20:23 2022.

 ----------------------------------------------------------------------
 #N Geom=AllCheck Guess=TCheck SCRF=Check GenChk RM062X/Aug-CC-pVTZ Fre
 q
 ----------------------------------------------------------------------

 Structure from the checkpoint file:  "4-CN.chk"
 -----------------
 4-CN_benzoic-acid
 -----------------
 Charge =  0 Multiplicity = 1

                         Standard orientation:
 ---------------------------------------------------------------------
 Center     Atomic      Atomic             Coordinates (Angstroms)
 Number     Number       Type             X           Y           Z
 ---------------------------------------------------------------------
      1          6           0       -0.245838    1.230596    0.000045
      2          6           0        1.135757    1.217432    0.000010
      3          6           0        1.808710   -0.003910    0.000001
      4          6           0        1.103796   -1.205638    0.000028
      5          6           0       -0.279502   -1.184902    0.000062
      6          6           0       -0.952061    0.032442    0.000077
      7          6           0       -2.439868    0.105899    0.000136
      8          8           0       -3.067564    1.128403   -0.000085
      9          8           0       -3.023598   -1.104806   -0.000088
     10          6           0        3.245104   -0.024134   -0.000037
     11          7           0        4.392209   -0.040751   -0.000066
     12          1           0       -0.796637    2.160471    0.000055
     13          1           0        1.699668    2.138852   -0.000010
     14          1           0        1.643116   -2.141689    0.000020
     15          1           0       -0.839764   -2.107937    0.000086
     16          1           0       -3.979134   -0.959923   -0.000239
 ---------------------------------------------------------------------

 SCF Done:  E(RM062X) =  -513.065174704     A.U. after    1 cycles

 The electronic state is 1-A.
 Alpha  occ. eigenvalues --  -19.69551 -19.63967 -14.76512 -10.70243 -10.61366
 Alpha  occ. eigenvalues --  -10.59261 -10.58975 -10.58788 -10.58724 -10.58471
 Alpha  occ. eigenvalues --  -10.58232  -1.26436  -1.16791  -1.03854  -1.00940
 Alpha  occ. eigenvalues --   -0.91654  -0.89030  -0.79994  -0.74108  -0.71401
 Alpha  occ. eigenvalues --   -0.66257  -0.62416  -0.60407  -0.56682  -0.56556
 Alpha  occ. eigenvalues --   -0.55204  -0.53199  -0.51588  -0.49871  -0.47980
 Alpha  occ. eigenvalues --   -0.45156  -0.45090  -0.43843  -0.42249  -0.41633
 Alpha  occ. eigenvalues --   -0.38458  -0.35103  -0.34281
 Alpha virt. eigenvalues --   -0.06346  -0.01730  -0.01475  -0.00169   0.00267
 Alpha virt. eigenvalues --    0.02099   0.02220   0.02483   0.03218   0.03477
 Alpha virt. eigenvalues --    0.05146   0.05277   0.05425   0.05484   0.06092

 Mulliken charges:
               1
     1  C   -0.771770
     2  C   -0.897693
     3  C    1.913930
     4  C   -0.901025
     5  C   -0.437830
     6  C    1.960494
     7  C    0.465378
     8  O   -0.899271
     9  O   -0.529888
    10  C    0.673846
    11  N   -0.947911
    12  H    0.142308
    13  H   -0.128424
    14  H   -0.105451
    15  H    0.156321
    16  H    0.306987
 Sum of Mulliken charges =   0.00000

 Dipole moment (field-independent basis, Debye):
    X=             -3.3042    Y=             -1.3701    Z=              0.0002  Tot=              3.5770
 Quadrupole moment (field-independent basis, Debye-Ang):
   XX=            -80.9344   YY=            -57.9622   ZZ=            -63.9341
   XY=              6.9695   XZ=              0.0004   YZ=              0.0004

  Exact polarizability:     159.411      -1.645     100.520       0.000       0.000      58.196
 Approx polarizability:     183.512      -3.976     140.159      -0.001      -0.001      78.442

 Summary of Natural Population Analysis:

                                       Natural Population
                Natural  -----------------------------------------------
    Atom  No    Charge         Core      Valence    Rydberg      Total
 -----------------------------------------------------------------------
      C    1   -0.15159      1.99920     4.13590    0.01649     6.15159
      C    2   -0.15585      1.99920     4.14130    0.01536     6.15585
      C    3   -0.15297      1.99893     4.13344    0.02060     6.15297
      C    4   -0.15525      1.99919     4.14078    0.01527     6.15525
      C    5   -0.16377      1.99920     4.14531    0.01925     6.16377
      C    6   -0.15334      1.99900     4.12852    0.02582     6.15334
      C    7    0.80210      1.99939     3.16565    0.03286     5.19790
      O    8   -0.59032      1.99977     6.55859    0.03196     8.59032
      O    9   -0.69731      1.99978     6.67264    0.02488     8.69731
      C   10    0.26597      1.99925     3.69966    0.03512     5.73403
      N   11   -0.28476      1.99961     5.25349    0.03166     7.28476
      H   12    0.24189      0.00000     0.75542    0.00269     0.75811
      H   13    0.22867      0.00000     0.76898    0.00235     0.77133
      H   14    0.22811      0.00000     0.76951    0.00239     0.77189
      H   15    0.23630      0.00000     0.76096    0.00273     0.76370
      H   16    0.50212      0.00000     0.49467    0.00321     0.49788
 =======================================================================
   * Total *    0.00000     21.99252    53.72482    0.28266    76.00000

                      1                      2                      3
                      A                      A                      A
 Frequencies --     63.3658                80.1073               132.4995
 Red. masses --      6.9179                 8.8559                 9.8275
 Frc consts  --      0.0164                 0.0335                 0.1017
 IR Inten    --      0.9931                 3.2846                 6.0958

                      4                      5                      6
                      A                      A                      A
 Frequencies --    216.1531               233.7854               330.0537
 Red. masses --      6.8644                 6.0486                11.0608
 Frc consts  --      0.1890                 0.1948                 0.7099
 IR Inten    --      3.6528                 3.2429                 1.6251

                      7                      8                      9
                      A                      A                      A
 Frequencies --    406.2374               412.9614               491.4305
 Red. masses --      2.8570                 4.5248                 7.9411
 Frc consts  --      0.2778                 0.4546                 1.1299
 IR Inten    --      0.3617                 2.7462                 5.1799

                     10                     11                     12
                      A                      A                      A
 Frequencies --    560.1191               562.6712               580.7311
 Red. masses --      2.9123                 6.9399                 6.8403
 Frc consts  --      0.5383                 1.2945                 1.3592
 IR Inten    --     53.8637                24.2530                 1.7844

                     13                     14                     15
                      A                      A                      A
 Frequencies --    598.5513               657.4870               713.4588
 Red. masses --      1.3513                 7.5043                 4.2343
 Frc consts  --      0.2852                 1.9113                 1.2699
 IR Inten    --     29.4209                 1.4435                42.8207

                     16                     17                     18
                      A                      A                      A
 Frequencies --    714.1653               797.4758               831.4683
 Red. masses --      3.3585                 3.7488                 5.7728
 Frc consts  --      1.0092                 1.4047                 2.3514
 IR Inten    --     44.1675                54.0550                10.4540

                     19                     20                     21
                      A                      A                      A
 Frequencies --    877.9291               900.9820              1012.1446
 Red. masses --      1.2549                 1.9064                 1.3613
 Frc consts  --      0.5699                 0.9118                 0.8216
 IR Inten    --      0.1789                17.5632                 0.0045

                     22                     23                     24
                      A                      A                      A
 Frequencies --   1022.4231              1043.3693              1129.9098
 Red. masses --      1.3738                 2.9666                 1.6024
 Frc consts  --      0.8461                 1.9028                 1.2053
 IR Inten    --      0.0175                 9.1946                48.6763

                     25                     26                     27
                      A                      A                      A
 Frequencies --   1142.4727              1197.3945              1218.8237
 Red. masses --      2.7649                 1.2267                 1.6771
 Frc consts  --      2.1263                 1.0363                 1.4678
 IR Inten    --     49.9398                82.6787               154.3049

                     28                     29                     30
                      A                      A                      A
 Frequencies --   1232.5690              1317.1144              1334.3902
 Red. masses --      3.3457                 5.4663                 1.4150
 Frc consts  --      2.9948                 5.5872                 1.4845
 IR Inten    --     14.5697                 9.9402                 2.1561

                     31                     32                     33
                      A                      A                      A
 Frequencies --   1397.0692              1450.1949              1554.2828
 Red. masses --      3.0132                 3.1822                 2.7153
 Frc consts  --      3.4651                 3.9431                 3.8648
 IR Inten    --    181.0294                32.8194                 2.5443

                     34                     35                     36
                      A                      A                      A
 Frequencies --   1639.1667              1685.3314              1855.5075
 Red. masses --      7.5721                 6.2014                10.6193
 Frc consts  --     11.9871                10.3779                21.5413
 IR Inten    --      4.6993                12.1528               393.2485

                     37                     38                     39
                      A                      A                      A
 Frequencies --   2408.6334              3224.3283              3227.2199
 Red. masses --     12.6861                 1.0896                 1.0904
 Frc consts  --     43.3631                 6.6741                 6.6911
 IR Inten    --     21.7073                 0.5553                 0.1323

                     40                     41                     42
                      A                      A                      A
 Frequencies --   3236.9684              3243.9212              3814.2753
 Red. masses --      1.0962                 1.0952                 1.0647
 Frc consts  --      6.7674                 6.7900                 9.1261
 IR Inten    --      1.0035                 0.5150               147.0842

 - Thermochemistry -
 -------------------
 Temperature   298.150 Kelvin.  Pressure   1.00000 Atm.
 Atom     1 has atomic number  6 and mass  12.00000

 Molecular mass:   147.03203 amu.
 Principal axes and moments of inertia in atomic units:
                           1         2         3
     Eigenvalues --   462.928893105.060023567.98891
           X            0.99999   0.00536   0.00000
           Y           -0.00536   0.99999   0.00000
           Z            0.00000   0.00000   1.00000
 This molecule is an asymmetric top.
 Rotational symmetry number  1.
 Warning -- assumption of classical behavior for rotation
           may cause significant error
 Rotational temperatures (Kelvin)      0.18710     0.02789     0.02428
 Rotational constants (GHZ):           3.89853     0.58123     0.50581
 Zero-point vibrational energy     302351.0 (Joules/Mol)
                                   72.26363 (Kcal/Mol)
 Warning -- explicit consideration of  13 degrees of freedom as
           vibrations may cause significant error
 Vibrational temperatures:     91.17   115.26   190.64   311.00   336.37
          (Kelvin)            474.87   584.48   594.16   707.06   805.89
                              809.56   835.54   861.18   945.98  1026.51
                             1027.52  1147.39  1196.30  1263.14  1296.31
                             1456.25  1471.04  1501.18  1625.69  1643.76
                             1722.78  1753.62  1773.39  1895.03  1919.89
                             2010.07  2086.51  2236.27  2358.40  2424.82
                             2669.66  3465.49  4639.09  4643.25  4657.28
                             4667.28  5487.89

 Zero-point correction=                           0.115159 (Hartree/Particle)
 Thermal correction to Energy=                    0.124045
 Thermal correction to Enthalpy=                  0.124989
 Thermal correction to Gibbs Free Energy=         0.080396
 Sum of electronic and zero-point Energies=           -512.950015
 Sum of electronic and thermal Energies=              -512.941130
 Sum of electronic and thermal Enthalpies=            -512.940186
 Sum of electronic and thermal Free Energies=         -512.984779

                     E (Thermal)             CV                S
                      KCal/Mol        Cal/Mol-Kelvin    Cal/Mol-Kelvin
 Total                   77.839             33.119             93.855
 Electronic               0.000              0.000              0.000
 Translational            0.889              2.981             40.867
 Rotational               0.889              2.981             30.018
 Vibrational             76.062             27.157             22.970
 Vibration     1          0.597              1.972              4.350
 Vibration     2          0.600              1.963              3.888
 Vibration     3          0.613              1.921              2.909
 Vibration     4          0.645              1.816              1.991
 Vibration     5          0.654              1.789              1.850
 Vibration     6          0.713              1.615              1.260
 Vibration     7          0.771              1.457              0.940
 Vibration     8          0.777              1.442              0.916
 Vibration     9          0.847              1.269              0.680
 Vibration    10          0.916              1.118              0.524
 Vibration    11          0.918              1.112              0.519
 Vibration    12          0.937              1.073              0.484
 Vibration    13          0.957              1.035              0.452

 Optimization completed.
    -- Stationary point found.
 Normal termination of Gaussian 16 at Mon Sep  5 20:44:46 2022.
