 Gaussian 16, Revision C.01,
 Gaussian 16:  ES64L-G16RevC.01  3-Jul-2019

 ------------------------------------
 # opt freq M062x/aug-cc-pvtz pop=nbo
 ------------------------------------

 --------------------
 4-CO2Me_benzoic-acid
 --------------------
 Symbolic Z-matrix:
 Charge =  0 Multiplicity = 1

 SCF Done:  E(RM062X) =  -648.656990067     A.U. after   14 cycles
 SCF Done:  E(RM062X) =  -648.696393841     A.U. after   12 cycles
 SCF Done:  E(RM062X) =  -648.704786456     A.U. after   12 cycles
 SCF Done:  E(RM062X) =  -648.705195710     A.U. after   10 cycles
 SCF Done:  E(RM062X) =  -648.705244593     A.U. after    9 cycles
 SCF Done:  E(RM062X) =  -648.705246719     A.U. after    8 cycles
 Optimization completed.
    -- Stationary point found.
 Normal termination of Gaussian 16 at Tue Sep  6 16:24:55 2022.

 ----------------------------------------------------------------------
 #N Geom=AllCheck Guess=TCheck SCRF=Check GenChk RM062X/Aug-CC-pVTZ Fre
 q
 ----------------------------------------------------------------------

 Structure from the checkpoint file:  "4-CO2Me.chk"
 --------------------
 4-CO2Me_benzoic-acid
 --------------------
 Charge =  0 Multiplicity = 1

                         Standard orientation:
 ---------------------------------------------------------------------
 Center     Atomic      Atomic             Coordinates (Angstroms)
 Number     Number       Type             X           Y           Z
 ---------------------------------------------------------------------
      1          6           0        1.204500    1.265179    0.000070
      2          6           0       -0.174710    1.353712   -0.000044
      3          6           0       -0.942782    0.193315   -0.000123
      4          6           0       -0.331794   -1.055982   -0.000073
      5          6           0        1.050327   -1.145394    0.000041
      6          6           0        1.816412    0.015430    0.000124
      7          6           0        3.304125   -0.028951    0.000290
      8          8           0        4.014925    0.938504   -0.000005
      9          8           0        3.793642   -1.282643   -0.000142
     10          6           0       -2.427630    0.344840   -0.000275
     11          8           0       -2.996571    1.403558   -0.000032
     12          8           0       -3.065812   -0.831097   -0.000019
     13          6           0       -4.490661   -0.745612    0.000191
     14          1           0        1.825645    2.149660    0.000135
     15          1           0       -0.677223    2.310535   -0.000083
     16          1           0       -0.939390   -1.948510   -0.000133
     17          1           0        1.537768   -2.109019    0.000081
     18          1           0        4.756933   -1.207548   -0.000348
     19          1           0       -4.849484   -1.769054    0.000322
     20          1           0       -4.835089   -0.215866    0.885876
     21          1           0       -4.835351   -0.215995   -0.885469
 ---------------------------------------------------------------------

 SCF Done:  E(RM062X) =  -648.705246719     A.U. after    1 cycles

 The electronic state is 1-A.
 Alpha  occ. eigenvalues --  -19.68487 -19.68406 -19.62871 -19.62503 -10.69104
 Alpha  occ. eigenvalues --  -10.68461 -10.59961 -10.57737 -10.57693 -10.56826
 Alpha  occ. eigenvalues --  -10.56703 -10.56523 -10.56399  -1.25336  -1.25241
 Alpha  occ. eigenvalues --   -1.15650  -1.15609  -0.99529  -0.90389  -0.87129
 Alpha  occ. eigenvalues --   -0.83860  -0.77492  -0.71947  -0.70097  -0.66441
 Alpha  occ. eigenvalues --   -0.64030  -0.60474  -0.59400  -0.58329  -0.57685
 Alpha  occ. eigenvalues --   -0.55400  -0.53837  -0.53267  -0.52602  -0.51071
 Alpha  occ. eigenvalues --   -0.49274  -0.49185  -0.45668  -0.45444  -0.44435
 Alpha  occ. eigenvalues --   -0.42246  -0.41402  -0.39089  -0.37465  -0.36941
 Alpha  occ. eigenvalues --   -0.33510  -0.33237
 Alpha virt. eigenvalues --   -0.05216  -0.01015  -0.00372   0.00038   0.00817
 Alpha virt. eigenvalues --    0.00975   0.01786   0.02236   0.03051   0.03161
 Alpha virt. eigenvalues --    0.03515   0.04160   0.04379   0.05674   0.05712

 Mulliken charges:
               1
     1  C   -0.563389
     2  C   -0.888781
     3  C    1.773201
     4  C   -0.270640
     5  C   -0.476653
     6  C    1.538658
     7  C    0.332830
     8  O   -0.917014
     9  O   -0.520714
    10  C    0.421779
    11  O   -1.003339
    12  O   -0.289056
    13  C   -0.943868
    14  H    0.111306
    15  H    0.086447
    16  H    0.173465
    17  H    0.125817
    18  H    0.297658
    19  H    0.265725
    20  H    0.373268
    21  H    0.373299
 Sum of Mulliken charges =   0.00000

 Dipole moment (field-independent basis, Debye):
    X=             -0.9030    Y=             -3.0807    Z=              0.0001  Tot=              3.2103
 Quadrupole moment (field-independent basis, Debye-Ang):
   XX=            -67.0695   YY=            -74.7740   ZZ=            -75.5653
   XY=             -0.2550   XZ=             -0.0001   YZ=              0.0001

  Exact polarizability:     175.557       1.202     119.661       0.001       0.000      69.873
 Approx polarizability:     182.778       0.446     168.570       0.001       0.001      94.675

 Summary of Natural Population Analysis:

                                       Natural Population
                Natural  -----------------------------------------------
    Atom  No    Charge         Core      Valence    Rydberg      Total
 -----------------------------------------------------------------------
      C    1   -0.18128      1.99926     4.15853    0.02349     6.18128
      C    2   -0.10789      1.99887     4.08883    0.02019     6.10789
      C    3   -0.17376      1.99907     4.13781    0.03688     6.17376
      C    4   -0.17394      1.99919     4.15369    0.02106     6.17394
      C    5   -0.17060      1.99920     4.15057    0.02083     6.17060
      C    6   -0.15754      1.99900     4.13162    0.02692     6.15754
      C    7    0.80275      1.99939     3.16471    0.03314     5.19725
      O    8   -0.59539      1.99977     6.56365    0.03197     8.59539
      O    9   -0.69926      1.99978     6.67457    0.02491     8.69926
      C   10    0.83798      1.99937     3.12903    0.03363     5.16202
      O   11   -0.60818      1.99978     6.57168    0.03672     8.60818
      O   12   -0.54188      1.99975     6.51424    0.02789     8.54188
      C   13   -0.22511      1.99936     4.20911    0.01663     6.22511
      H   14    0.23504      0.00000     0.76076    0.00420     0.76496
      H   15    0.23494      0.00000     0.76153    0.00353     0.76506
      H   16    0.22817      0.00000     0.76691    0.00493     0.77183
      H   17    0.23046      0.00000     0.76653    0.00301     0.76954
      H   18    0.49981      0.00000     0.49689    0.00330     0.50019
      H   19    0.18782      0.00000     0.80917    0.00302     0.81218
      H   20    0.18900      0.00000     0.80793    0.00307     0.81100
      H   21    0.18900      0.00000     0.80793    0.00307     0.81100
 =======================================================================
   * Total *    0.00013     25.99179    67.62569    0.38240    93.99987

                      1                      2                      3
                      A                      A                      A
 Frequencies --     44.0008                64.6273                73.7000
 Red. masses --      7.2696                 5.0788                 5.8289
 Frc consts  --      0.0083                 0.0125                 0.0187
 IR Inten    --      0.0718                 0.6862                 1.0632

                      4                      5                      6
                      A                      A                      A
 Frequencies --    124.1379               146.7075               179.4976
 Red. masses --      5.3088                 2.9129                 1.2175
 Frc consts  --      0.0482                 0.0369                 0.0231
 IR Inten    --      0.1719                 2.5078                 0.0586

                      7                      8                      9
                      A                      A                      A
 Frequencies --    225.3013               263.6798               278.6146
 Red. masses --      5.5944                 5.7406                 8.7384
 Frc consts  --      0.1673                 0.2352                 0.3997
 IR Inten    --      2.3906                 4.1729                 0.2957

                     10                     11                     12
                      A                      A                      A
 Frequencies --    342.2286               414.4658               464.9816
 Red. masses --      4.4318                 2.8629                 3.2931
 Frc consts  --      0.3058                 0.2898                 0.4195
 IR Inten    --     21.3610                 0.1749                10.4880

                     13                     14                     15
                      A                      A                      A
 Frequencies --    465.1342               486.8997               537.9533
 Red. masses --      7.4349                 6.3165                 6.4408
 Frc consts  --      0.9477                 0.8823                 1.0982
 IR Inten    --      0.6702                19.9612                 8.6445

                     16                     17                     18
                      A                      A                      A
 Frequencies --    597.9111               644.0236               675.6021
 Red. masses --      1.2319                 7.0964                 4.6486
 Frc consts  --      0.2595                 1.7342                 1.2501
 IR Inten    --     64.3873                 0.7185                34.7774

                     19                     20                     21
                      A                      A                      A
 Frequencies --    705.6257               760.9464               788.6220
 Red. masses --      4.0795                 2.7058                 4.8559
 Frc consts  --      1.1967                 0.9231                 1.7793
 IR Inten    --      3.2381               119.2986                39.6329

                     22                     23                     24
                      A                      A                      A
 Frequencies --    832.1364               861.4398               887.6215
 Red. masses --      6.1756                 5.2959                 1.2682
 Frc consts  --      2.5195                 2.3155                 0.5887
 IR Inten    --      0.6469                 5.5574                 0.0823

                     25                     26                     27
                      A                      A                      A
 Frequencies --    920.8288              1022.2793              1028.7284
 Red. masses --      1.9956                 1.3658                 6.2230
 Frc consts  --      0.9970                 0.8410                 3.8802
 IR Inten    --      9.0538                 0.0000                 4.0423

                     28                     29                     30
                      A                      A                      A
 Frequencies --   1035.7299              1047.6532              1126.0253
 Red. masses --      1.3681                 2.9706                 1.5624
 Frc consts  --      0.8647                 1.9210                 1.1672
 IR Inten    --      0.0038                27.9736                40.5884

                     31                     32                     33
                      A                      A                      A
 Frequencies --   1141.0231              1165.8590              1189.2438
 Red. masses --      2.8046                 3.0952                 1.2864
 Frc consts  --      2.1514                 2.4788                 1.0719
 IR Inten    --     64.0139                81.2168                 1.2873

                     34                     35                     36
                      A                      A                      A
 Frequencies --   1198.5937              1221.0335              1233.7283
 Red. masses --      1.2402                 1.6683                 1.7243
 Frc consts  --      1.0498                 1.4655                 1.5464
 IR Inten    --     52.3345               233.1564                31.9151

                     37                     38                     39
                      A                      A                      A
 Frequencies --   1328.9252              1329.9478              1341.6868
 Red. masses --      6.0979                 1.2950                 5.6520
 Frc consts  --      6.3450                 1.3496                 5.9946
 IR Inten    --    449.7180                19.3507               176.4422

                     40                     41                     42
                      A                      A                      A
 Frequencies --   1395.4820              1453.4666              1486.4211
 Red. masses --      3.0286                 3.3439                 1.2600
 Frc consts  --      3.4749                 4.1621                 1.6402
 IR Inten    --    124.7753                32.5118                32.1900

                     43                     44                     45
                      A                      A                      A
 Frequencies --   1496.4583              1507.8478              1555.7879
 Red. masses --      1.0421                 1.0457                 2.7456
 Frc consts  --      1.3750                 1.4007                 3.9155
 IR Inten    --      9.3469                11.4558                15.4566

                     46                     47                     48
                      A                      A                      A
 Frequencies --   1649.5366              1687.1354              1833.5345
 Red. masses --      7.7971                 6.2475                11.9839
 Frc consts  --     12.4999                10.4775                23.7370
 IR Inten    --     17.4430                 2.4004               263.9337

                     49                     50                     51
                      A                      A                      A
 Frequencies --   1851.1698              3084.5370              3157.2560
 Red. masses --     10.5050                 1.0306                 1.1066
 Frc consts  --     21.2100                 5.7770                 6.4993
 IR Inten    --    411.6237                27.6628                11.8884

                     52                     53                     54
                      A                      A                      A
 Frequencies --   3193.6941              3223.5913              3231.6029
 Red. masses --      1.1065                 1.0890                 1.0889
 Frc consts  --      6.6494                 6.6675                 6.7001
 IR Inten    --      9.6394                 1.4578                 0.0390

                     55                     56                     57
                      A                      A                      A
 Frequencies --   3235.7339              3244.4424              3818.1732
 Red. masses --      1.0955                 1.0954                 1.0646
 Frc consts  --      6.7580                 6.7935                 9.1442
 IR Inten    --      0.0926                 0.0740               138.5929

 - Thermochemistry -
 -------------------
 Temperature   298.150 Kelvin.  Pressure   1.00000 Atm.
 Atom     1 has atomic number  6 and mass  12.00000

 Molecular mass:   180.04226 amu.
 Principal axes and moments of inertia in atomic units:
                           1         2         3
     Eigenvalues --   665.681815036.235325690.62462
           X            0.99999   0.00485   0.00000
           Y           -0.00485   0.99999   0.00000
           Z            0.00000   0.00000   1.00000
 This molecule is an asymmetric top.
 Rotational symmetry number  1.
 Warning -- assumption of classical behavior for rotation
           may cause significant error
 Rotational temperatures (Kelvin)      0.13011     0.01720     0.01522
 Rotational constants (GHZ):           2.71112     0.35835     0.31714
 Zero-point vibrational energy     420505.4 (Joules/Mol)
                                  100.50321 (Kcal/Mol)
 Warning -- explicit consideration of  16 degrees of freedom as
           vibrations may cause significant error
 Vibrational temperatures:     63.31    92.98   106.04   178.61   211.08
          (Kelvin)            258.26   324.16   379.38   400.86   492.39
                              596.32   669.00   669.22   700.54   773.99
                              860.26   926.61   972.04  1015.24  1094.83
                             1134.65  1197.26  1239.42  1277.09  1324.87
                             1470.83  1480.11  1490.18  1507.34  1620.10
                             1641.68  1677.41  1711.06  1724.51  1756.79
                             1775.06  1912.03  1913.50  1930.39  2007.79
                             2091.21  2138.63  2153.07  2169.46  2238.43
                             2373.32  2427.41  2638.05  2663.42  4437.96
                             4542.59  4595.01  4638.03  4649.56  4655.50
                             4668.03  5493.50

 Zero-point correction=                           0.160162 (Hartree/Particle)
 Thermal correction to Energy=                    0.171670
 Thermal correction to Enthalpy=                  0.172614
 Thermal correction to Gibbs Free Energy=         0.121471
 Sum of electronic and zero-point Energies=           -648.545085
 Sum of electronic and thermal Energies=              -648.533577
 Sum of electronic and thermal Enthalpies=            -648.532633
 Sum of electronic and thermal Free Energies=         -648.583775

                     E (Thermal)             CV                S
                      KCal/Mol        Cal/Mol-Kelvin    Cal/Mol-Kelvin
 Total                  107.724             42.071            107.638
 Electronic               0.000              0.000              0.000
 Translational            0.889              2.981             41.471
 Rotational               0.889              2.981             31.323
 Vibrational            105.947             36.109             34.844
 Vibration     1          0.595              1.980              5.070
 Vibration     2          0.597              1.971              4.311
 Vibration     3          0.599              1.966              4.052
 Vibration     4          0.610              1.929              3.035
 Vibration     5          0.617              1.906              2.714
 Vibration     6          0.629              1.867              2.334
 Vibration     7          0.650              1.803              1.916
 Vibration     8          0.670              1.739              1.637
 Vibration     9          0.679              1.713              1.542
 Vibration    10          0.721              1.591              1.202
 Vibration    11          0.778              1.439              0.911
 Vibration    12          0.822              1.328              0.752
 Vibration    13          0.823              1.327              0.751
 Vibration    14          0.843              1.279              0.692
 Vibration    15          0.893              1.166              0.570
 Vibration    16          0.956              1.036              0.453

 Optimization completed.
    -- Stationary point found.
 Normal termination of Gaussian 16 at Tue Sep  6 17:16:08 2022.
