 Gaussian 16, Revision C.01,
 Gaussian 16:  ES64L-G16RevC.01  3-Jul-2019

 ------------------------------------
 # opt freq M062x/aug-cc-pvtz pop=nbo
 ------------------------------------

 ------------------
 4-NO2_benzoic-acid
 ------------------
 Symbolic Z-matrix:
 Charge =  0 Multiplicity = 1

 SCF Done:  E(RM062X) =  -625.240622060     A.U. after   15 cycles
 SCF Done:  E(RM062X) =  -625.300898573     A.U. after   13 cycles
 SCF Done:  E(RM062X) =  -625.324803434     A.U. after   13 cycles
 SCF Done:  E(RM062X) =  -625.329108734     A.U. after   12 cycles
 SCF Done:  E(RM062X) =  -625.329513233     A.U. after   11 cycles
 SCF Done:  E(RM062X) =  -625.329576866     A.U. after   12 cycles
 SCF Done:  E(RM062X) =  -625.329558433     A.U. after   11 cycles
 SCF Done:  E(RM062X) =  -625.329596100     A.U. after   10 cycles
 SCF Done:  E(RM062X) =  -625.329597778     A.U. after    9 cycles
 Optimization completed.
    -- Stationary point found.
 Normal termination of Gaussian 16 at Mon Sep  5 20:39:00 2022.

 ----------------------------------------------------------------------
 #N Geom=AllCheck Guess=TCheck SCRF=Check GenChk RM062X/Aug-CC-pVTZ Fre
 q
 ----------------------------------------------------------------------

 Structure from the checkpoint file:  "4-NO2.chk"
 ------------------
 4-NO2_benzoic-acid
 ------------------
 Charge =  0 Multiplicity = 1

                         Standard orientation:
 ---------------------------------------------------------------------
 Center     Atomic      Atomic             Coordinates (Angstroms)
 Number     Number       Type             X           Y           Z
 ---------------------------------------------------------------------
      1          6           0       -0.637687    1.234184   -0.000225
      2          6           0        0.745406    1.224891   -0.000123
      3          6           0        1.389933    0.000635   -0.000018
      4          6           0        0.715642   -1.205954    0.000001
      5          6           0       -0.669159   -1.183754   -0.000072
      6          6           0       -1.340812    0.034111   -0.000206
      7          6           0       -2.830298    0.105908   -0.000375
      8          8           0       -3.457588    1.128301    0.000050
      9          8           0       -3.411738   -1.105100    0.000399
     10          7           0        2.869667   -0.018601    0.000071
     11          8           0        3.412284   -1.099666   -0.000327
     12          8           0        3.440053    1.047893    0.000528
     13          1           0       -1.189606    2.163187   -0.000333
     14          1           0        1.324346    2.135252   -0.000125
     15          1           0        1.272003   -2.130283    0.000078
     16          1           0       -1.228911   -2.106909   -0.000043
     17          1           0       -4.367735   -0.962586    0.000833
 ---------------------------------------------------------------------

 SCF Done:  E(RM062X) =  -625.329597778     A.U. after    1 cycles

 The electronic state is 1-A.
 Alpha  occ. eigenvalues --  -19.69767 -19.67799 -19.67790 -19.64199 -15.01558
 Alpha  occ. eigenvalues --  -10.70480 -10.62880 -10.59616 -10.58893 -10.58822
 Alpha  occ. eigenvalues --  -10.58768 -10.58539  -1.39039  -1.26668  -1.20358
 Alpha  occ. eigenvalues --   -1.17031  -1.02360  -0.93819  -0.89350  -0.83880
 Alpha  occ. eigenvalues --   -0.75586  -0.73870  -0.69470  -0.67280  -0.64664
 Alpha  occ. eigenvalues --   -0.63230  -0.62128  -0.60576  -0.56771  -0.56312
 Alpha  occ. eigenvalues --   -0.55363  -0.53620  -0.52632  -0.48477  -0.48415
 Alpha  occ. eigenvalues --   -0.44795  -0.42730  -0.40625  -0.39973  -0.39960
 Alpha  occ. eigenvalues --   -0.38678  -0.35870  -0.35252
 Alpha virt. eigenvalues --   -0.08032  -0.01864  -0.01502  -0.00904  -0.00100
 Alpha virt. eigenvalues --    0.00398   0.02192   0.02240   0.02638   0.03113
 Alpha virt. eigenvalues --    0.05085   0.05375   0.05479   0.06036   0.06497

 Mulliken charges:
               1
     1  C   -0.781423
     2  C   -0.359442
     3  C    0.801758
     4  C   -0.462274
     5  C   -0.428667
     6  C    1.670558
     7  C    0.428366
     8  O   -0.917769
     9  O   -0.543998
    10  N    0.751498
    11  O   -0.666890
    12  O   -0.670818
    13  H    0.040278
    14  H    0.377572
    15  H    0.368180
    16  H    0.088405
    17  H    0.304666
 Sum of Mulliken charges =   0.00000

 Dipole moment (field-independent basis, Debye):
    X=             -3.3601    Y=             -1.3736    Z=             -0.0003  Tot=              3.6300
 Quadrupole moment (field-independent basis, Debye-Ang):
   XX=            -80.0634   YY=            -65.9788   ZZ=            -68.0090
   XY=              7.4136   XZ=             -0.0021   YZ=             -0.0030

  Exact polarizability:     148.450      -1.243     110.939       0.000       0.002      57.419
 Approx polarizability:     163.601      -3.225     165.796       0.000       0.008      78.571

 Summary of Natural Population Analysis:

                                       Natural Population
                Natural  -----------------------------------------------
    Atom  No    Charge         Core      Valence    Rydberg      Total
 -----------------------------------------------------------------------
      C    1   -0.17098      1.99926     4.15051    0.02122     6.17098
      C    2   -0.13227      1.99881     4.11347    0.01999     6.13227
      C    3    0.02855      1.99886     3.94020    0.03239     5.97145
      C    4   -0.16876      1.99881     4.14894    0.02102     6.16876
      C    5   -0.17053      1.99923     4.15031    0.02099     6.17053
      C    6   -0.14816      1.99900     4.12290    0.02625     6.14816
      C    7    0.80164      1.99940     3.16588    0.03308     5.19836
      O    8   -0.58814      1.99977     6.55623    0.03213     8.58814
      O    9   -0.69639      1.99978     6.67167    0.02494     8.69639
      N   10    0.53451      1.99961     4.41456    0.05131     6.46549
      O   11   -0.38115      1.99982     6.35989    0.02144     8.38115
      O   12   -0.37976      1.99982     6.35852    0.02142     8.37976
      H   13    0.24144      0.00000     0.75486    0.00369     0.75856
      H   14    0.24201      0.00000     0.75278    0.00520     0.75799
      H   15    0.24838      0.00000     0.74768    0.00394     0.75162
      H   16    0.23704      0.00000     0.76024    0.00273     0.76296
      H   17    0.50260      0.00000     0.49418    0.00322     0.49740
 =======================================================================
   * Total *    0.00005     23.99216    61.66283    0.34495    85.99995

                      1                      2                      3
                      A                      A                      A
 Frequencies --     46.8759                68.0646                83.0071
 Red. masses --     13.5378                 6.0113                 8.4057
 Frc consts  --      0.0175                 0.0164                 0.0341
 IR Inten    --      0.6022                 0.5864                 2.2856

                      4                      5                      6
                      A                      A                      A
 Frequencies --    165.4005               250.5411               285.6421
 Red. masses --      9.0667                 6.3168                 6.8832
 Frc consts  --      0.1461                 0.2336                 0.3309
 IR Inten    --      2.2933                 3.4165                 2.3876

                      7                      8                      9
                      A                      A                      A
 Frequencies --    300.3693               413.6746               457.8417
 Red. masses --     12.6331                 2.8546                 3.2531
 Frc consts  --      0.6715                 0.2878                 0.4018
 IR Inten    --      0.1969                 0.1857                12.0513

                     10                     11                     12
                      A                      A                      A
 Frequencies --    488.5264               518.5237               551.0504
 Red. masses --      8.1229                 8.3005                 6.1355
 Frc consts  --      1.1422                 1.3149                 1.0977
 IR Inten    --     11.5391                22.8342                 0.4988

                     13                     14                     15
                      A                      A                      A
 Frequencies --    591.7648               639.8000               680.7330
 Red. masses --      1.2482                 7.1303                 4.7372
 Frc consts  --      0.2575                 1.7197                 1.2934
 IR Inten    --     62.0277                 0.2238                29.3254

                     16                     17                     18
                      A                      A                      A
 Frequencies --    687.7093               758.1327               794.6336
 Red. masses --      3.7426                 2.8121                 5.3535
 Frc consts  --      1.0429                 0.9523                 1.9917
 IR Inten    --      7.7856               108.6939                46.5096

                     19                     20                     21
                      A                      A                      A
 Frequencies --    824.7984               874.3509               897.4995
 Red. masses --      6.9575                 1.2466                10.3292
 Frc consts  --      2.7887                 0.5615                 4.9021
 IR Inten    --      3.5161                 0.0052                38.0504

                     22                     23                     24
                      A                      A                      A
 Frequencies --    920.0417              1014.6881              1023.5068
 Red. masses --      2.0518                 1.3623                 1.3715
 Frc consts  --      1.0233                 0.8264                 0.8465
 IR Inten    --     14.6208                 0.0943                 0.0011

                     25                     26                     27
                      A                      A                      A
 Frequencies --   1038.8638              1122.7418              1139.2240
 Red. masses --      2.9397                 1.3540                 2.5425
 Frc consts  --      1.8693                 1.0056                 1.9442
 IR Inten    --      9.3936                27.9409                20.6654

                     28                     29                     30
                      A                      A                      A
 Frequencies --   1145.0148              1196.3374              1220.4843
 Red. masses --      3.7618                 1.3111                 1.8090
 Frc consts  --      2.9058                 1.1056                 1.5877
 IR Inten    --     70.8959                67.3727               182.4026

                     31                     32                     33
                      A                      A                      A
 Frequencies --   1320.4849              1347.4894              1396.4084
 Red. masses --      1.3250                 6.2580                 2.9799
 Frc consts  --      1.3612                 6.6948                 3.4236
 IR Inten    --      2.4856                30.8221               202.2417

                     34                     35                     36
                      A                      A                      A
 Frequencies --   1456.0586              1462.6103              1541.4211
 Red. masses --      4.1132                12.0039                 2.6559
 Frc consts  --      5.1379                15.1296                 3.7180
 IR Inten    --     71.8142               174.9157                 2.2706

                     37                     38                     39
                      A                      A                      A
 Frequencies --   1653.4020              1676.7007              1706.5947
 Red. masses --      9.9433                 6.3418                10.8837
 Frc consts  --     16.0155                10.5044                18.6762
 IR Inten    --    136.8402                 9.0831               205.1448

                     40                     41                     42
                      A                      A                      A
 Frequencies --   1857.2547              3231.8598              3240.3548
 Red. masses --     10.6560                 1.0910                 1.0902
 Frc consts  --     21.6564                 6.7140                 6.7442
 IR Inten    --    370.5649                 2.6861                 1.3354

                     43                     44                     45
                      A                      A                      A
 Frequencies --   3254.5236              3255.4617              3813.0382
 Red. masses --      1.0941                 1.0952                 1.0647
 Frc consts  --      6.8280                 6.8384                 9.1202
 IR Inten    --      5.3988                 3.4843               145.8493

 - Thermochemistry -
 -------------------
 Temperature   298.150 Kelvin.  Pressure   1.00000 Atm.
 Atom     1 has atomic number  6 and mass  12.00000

 Molecular mass:   167.02186 amu.
 Principal axes and moments of inertia in atomic units:
                           1         2         3
     Eigenvalues --   595.553323777.028674372.58190
           X            0.99999   0.00486   0.00000
           Y           -0.00486   0.99999  -0.00001
           Z            0.00000   0.00001   1.00000
 This molecule is an asymmetric top.
 Rotational symmetry number  1.
 Warning -- assumption of classical behavior for rotation
           may cause significant error
 Rotational temperatures (Kelvin)      0.14543     0.02293     0.01981
 Rotational constants (GHZ):           3.03036     0.47782     0.41274
 Zero-point vibrational energy     313502.4 (Joules/Mol)
                                   74.92887 (Kcal/Mol)
 Warning -- explicit consideration of  13 degrees of freedom as
           vibrations may cause significant error
 Vibrational temperatures:     67.44    97.93   119.43   237.97   360.47
          (Kelvin)            410.98   432.16   595.19   658.73   702.88
                              746.04   792.84   851.42   920.53   979.42
                              989.46  1090.78  1143.30  1186.70  1258.00
                             1291.30  1323.73  1459.91  1472.60  1494.69
                             1615.37  1639.09  1647.42  1721.26  1756.00
                             1899.88  1938.74  2009.12  2094.94  2104.37
                             2217.76  2378.88  2412.40  2455.41  2672.18
                             4649.93  4662.15  4682.53  4683.88  5486.11

 Zero-point correction=                           0.119407 (Hartree/Particle)
 Thermal correction to Energy=                    0.128990
 Thermal correction to Enthalpy=                  0.129935
 Thermal correction to Gibbs Free Energy=         0.083026
 Sum of electronic and zero-point Energies=           -625.210191
 Sum of electronic and thermal Energies=              -625.200607
 Sum of electronic and thermal Enthalpies=            -625.199663
 Sum of electronic and thermal Free Energies=         -625.246572

                     E (Thermal)             CV                S
                      KCal/Mol        Cal/Mol-Kelvin    Cal/Mol-Kelvin
 Total                   80.943             35.471             98.728
 Electronic               0.000              0.000              0.000
 Translational            0.889              2.981             41.247
 Rotational               0.889              2.981             30.665
 Vibrational             79.165             29.509             26.816
 Vibration     1          0.595              1.979              4.945
 Vibration     2          0.598              1.969              4.209
 Vibration     3          0.600              1.961              3.818
 Vibration     4          0.624              1.885              2.487
 Vibration     5          0.663              1.762              1.727
 Vibration     6          0.683              1.700              1.500
 Vibration     7          0.693              1.673              1.415
 Vibration     8          0.777              1.441              0.914
 Vibration     9          0.816              1.344              0.772
 Vibration    10          0.844              1.275              0.687
 Vibration    11          0.874              1.209              0.613
 Vibration    12          0.906              1.137              0.542
 Vibration    13          0.949              1.049              0.464

 Optimization completed.
    -- Stationary point found.
 Normal termination of Gaussian 16 at Mon Sep  5 21:10:16 2022.
