 Gaussian 16, Revision C.01,
 Gaussian 16:  ES64L-G16RevC.01  3-Jul-2019

 ------------------------------------
 # opt freq M062x/aug-cc-pvtz pop=nbo
 ------------------------------------

 ------------------
 4-OMe_benzoic-acid
 ------------------
 Symbolic Z-matrix:
 Charge =  0 Multiplicity = 1

 SCF Done:  E(RM062X) =  -535.315145119     A.U. after   14 cycles
 SCF Done:  E(RM062X) =  -535.344317787     A.U. after   12 cycles
 SCF Done:  E(RM062X) =  -535.347067225     A.U. after   12 cycles
 SCF Done:  E(RM062X) =  -535.347200450     A.U. after   11 cycles
 SCF Done:  E(RM062X) =  -535.347227183     A.U. after   10 cycles
 SCF Done:  E(RM062X) =  -535.347230324     A.U. after    8 cycles
 Optimization completed.
    -- Stationary point found.
 Normal termination of Gaussian 16 at Mon Sep  5 20:27:31 2022.

 ----------------------------------------------------------------------
 #N Geom=AllCheck Guess=TCheck SCRF=Check GenChk RM062X/Aug-CC-pVTZ Fre
 q
 ----------------------------------------------------------------------

 Structure from the checkpoint file:  "4-OMe.chk"
 ------------------
 4-OMe_benzoic-acid
 ------------------
 Charge =  0 Multiplicity = 1

                         Standard orientation:
 ---------------------------------------------------------------------
 Center     Atomic      Atomic             Coordinates (Angstroms)
 Number     Number       Type             X           Y           Z
 ---------------------------------------------------------------------
      1          6           0        0.506971    1.312067    0.000020
      2          6           0       -0.863202    1.431354   -0.000003
      3          6           0       -1.663070    0.284769   -0.000019
      4          6           0       -1.074277   -0.977852   -0.000015
      5          6           0        0.308846   -1.084317    0.000010
      6          6           0        1.106499    0.051092    0.000032
      7          6           0        2.582619   -0.022612    0.000068
      8          8           0        3.320761    0.927124   -0.000027
      9          8           0        3.052256   -1.288098   -0.000026
     10          8           0       -2.996217    0.497699   -0.000053
     11          6           0       -3.849249   -0.628425    0.000032
     12          1           0        1.140927    2.187895    0.000036
     13          1           0       -1.348436    2.396938   -0.000007
     14          1           0       -1.676660   -1.872898   -0.000036
     15          1           0        0.771172   -2.060822    0.000015
     16          1           0        4.015869   -1.223308   -0.000086
     17          1           0       -4.862544   -0.239702    0.000092
     18          1           0       -3.692842   -1.239205   -0.891471
     19          1           0       -3.692717   -1.239160    0.891544
 ---------------------------------------------------------------------

 SCF Done:  E(RM062X) =  -535.347230324     A.U. after    1 cycles

 The electronic state is 1-A.
 Alpha  occ. eigenvalues --  -19.67267 -19.67236 -19.61468 -10.67784 -10.62202
 Alpha  occ. eigenvalues --  -10.60253 -10.56204 -10.55744 -10.55634 -10.55400
 Alpha  occ. eigenvalues --  -10.54923  -1.23981  -1.21339  -1.14222  -0.97966
 Alpha  occ. eigenvalues --   -0.88271  -0.86388  -0.81714  -0.74083  -0.71570
 Alpha  occ. eigenvalues --   -0.67257  -0.63142  -0.59969  -0.58435  -0.56791
 Alpha  occ. eigenvalues --   -0.56455  -0.54083  -0.53204  -0.51305  -0.49678
 Alpha  occ. eigenvalues --   -0.49125  -0.46517  -0.45763  -0.44130  -0.41250
 Alpha  occ. eigenvalues --   -0.40424  -0.39792  -0.36097  -0.32568  -0.29463
 Alpha virt. eigenvalues --   -0.01555  -0.01038  -0.00062   0.00600   0.00744
 Alpha virt. eigenvalues --    0.01381   0.01389   0.02454   0.03392   0.03650
 Alpha virt. eigenvalues --    0.04053   0.04851   0.05773   0.05937   0.07123

 Mulliken charges:
               1
     1  C   -0.743920
     2  C   -0.441699
     3  C    1.263001
     4  C   -0.178676
     5  C   -0.597812
     6  C    1.747343
     7  C    0.403575
     8  O   -0.930008
     9  O   -0.537365
    10  O   -0.888910
    11  C   -1.029085
    12  H   -0.008226
    13  H    0.394447
    14  H    0.217463
    15  H    0.004197
    16  H    0.291390
    17  H    0.306308
    18  H    0.363995
    19  H    0.363981
 Sum of Mulliken charges =   0.00000

 Dipole moment (field-independent basis, Debye):
    X=             -2.7084    Y=             -2.4294    Z=              0.0002  Tot=              3.6383
 Quadrupole moment (field-independent basis, Debye-Ang):
   XX=            -57.0830   YY=            -61.3527   ZZ=            -66.1371
   XY=             -2.3679   XZ=             -0.0003   YZ=              0.0003

  Exact polarizability:     154.982       3.610     105.872       0.000       0.000      63.867
 Approx polarizability:     169.845       3.720     144.912       0.000       0.000      85.374

 Summary of Natural Population Analysis:

                                       Natural Population
                Natural  -----------------------------------------------
    Atom  No    Charge         Core      Valence    Rydberg      Total
 -----------------------------------------------------------------------
      C    1   -0.13251      1.99922     4.11665    0.01664     6.13251
      C    2   -0.24999      1.99917     4.23273    0.01809     6.24999
      C    3    0.34338      1.99893     3.63140    0.02628     5.65662
      C    4   -0.30721      1.99915     4.29253    0.01553     6.30721
      C    5   -0.13594      1.99922     4.11640    0.02032     6.13594
      C    6   -0.21608      1.99899     4.19064    0.02646     6.21608
      C    7    0.80569      1.99938     3.16118    0.03376     5.19431
      O    8   -0.61072      1.99977     6.57917    0.03177     8.61072
      O    9   -0.70529      1.99979     6.68074    0.02477     8.70529
      O   10   -0.51375      1.99974     6.48643    0.02758     8.51375
      C   11   -0.21802      1.99936     4.20547    0.01319     6.21802
      H   12    0.23377      0.00000     0.76328    0.00296     0.76623
      H   13    0.22323      0.00000     0.77247    0.00430     0.77677
      H   14    0.21835      0.00000     0.77859    0.00307     0.78165
      H   15    0.22714      0.00000     0.76978    0.00308     0.77286
      H   16    0.49719      0.00000     0.49944    0.00337     0.50281
      H   17    0.19370      0.00000     0.80206    0.00424     0.80630
      H   18    0.17353      0.00000     0.82393    0.00255     0.82647
      H   19    0.17353      0.00000     0.82393    0.00255     0.82647
 =======================================================================
   * Total *    0.00000     21.99271    57.72680    0.28049    80.00000

                      1                      2                      3
                      A                      A                      A
 Frequencies --     66.4983                80.7224               136.9612
 Red. masses --      6.5207                 4.0230                 4.5352
 Frc consts  --      0.0170                 0.0154                 0.0501
 IR Inten    --      0.0331                 1.2105                 2.5673

                      4                      5                      6
                      A                      A                      A
 Frequencies --    172.3846               251.8982               281.5808
 Red. masses --      5.3933                 1.3552                 3.8262
 Frc consts  --      0.0944                 0.0507                 0.1787
 IR Inten    --      0.2522                 0.5972                 4.8965

                      7                      8                      9
                      A                      A                      A
 Frequencies --    313.3081               340.8840               427.7670
 Red. masses --      2.6013                 7.7045                 2.9599
 Frc consts  --      0.1504                 0.5275                 0.3191
 IR Inten    --      3.2862                 0.2966                 0.1859

                     10                     11                     12
                      A                      A                      A
 Frequencies --    487.7673               516.0443               516.5419
 Red. masses --      5.7267                 4.6359                 2.5071
 Frc consts  --      0.8027                 0.7274                 0.3941
 IR Inten    --      2.2420                11.8739                30.1069

                     13                     14                     15
                      A                      A                      A
 Frequencies --    593.2072               612.2748               646.4114
 Red. masses --      1.2060                 5.3193                 6.9337
 Frc consts  --      0.2500                 1.1749                 1.7070
 IR Inten    --     50.4533                65.8693                 3.8745

                     16                     17                     18
                      A                      A                      A
 Frequencies --    717.2719               740.2273               801.4417
 Red. masses --      3.1428                 4.0693                 4.5018
 Frc consts  --      0.9526                 1.3137                 1.7037
 IR Inten    --     31.2279                 8.0578                64.6903

                     19                     20                     21
                      A                      A                      A
 Frequencies --    846.8874               848.7786               887.6089
 Red. masses --      5.4637                 1.2905                 1.8807
 Frc consts  --      2.3088                 0.5478                 0.8730
 IR Inten    --     15.9762                 0.5940                24.9415

                     22                     23                     24
                      A                      A                      A
 Frequencies --    994.3435              1018.7745              1031.6630
 Red. masses --      1.3723                 1.3447                 2.7678
 Frc consts  --      0.7994                 0.8223                 1.7356
 IR Inten    --      0.1729                 0.0282                 1.1806

                     25                     26                     27
                      A                      A                      A
 Frequencies --   1104.6282              1127.5748              1143.1241
 Red. masses --      6.5548                 1.9731                 1.8394
 Frc consts  --      4.7124                 1.4780                 1.4162
 IR Inten    --     46.5962               117.5196                18.0959

                     28                     29                     30
                      A                      A                      A
 Frequencies --   1185.1708              1191.6525              1216.1032
 Red. masses --      1.2789                 1.2257                 1.4417
 Frc consts  --      1.0584                 1.0255                 1.2562
 IR Inten    --      1.1984               202.0994                11.4693

                     31                     32                     33
                      A                      A                      A
 Frequencies --   1226.8485              1310.9708              1330.1281
 Red. masses --      1.5604                 5.1315                 1.3335
 Frc consts  --      1.3838                 5.1961                 1.3901
 IR Inten    --    123.9706               198.9209                34.1287

                     34                     35                     36
                      A                      A                      A
 Frequencies --   1358.2106              1393.5202              1469.5798
 Red. masses --      6.0563                 2.8659                 3.4600
 Frc consts  --      6.5825                 3.2790                 4.4026
 IR Inten    --    106.7378               203.9876                50.4812

                     37                     38                     39
                      A                      A                      A
 Frequencies --   1485.1223              1508.3686              1516.2188
 Red. masses --      1.2018                 1.0434                 1.0612
 Frc consts  --      1.5618                 1.3986                 1.4373
 IR Inten    --      2.1766                 8.8948                20.6381

                     40                     41                     42
                      A                      A                      A
 Frequencies --   1566.6196              1648.0332              1680.9550
 Red. masses --      2.9090                 7.3820                 6.2193
 Frc consts  --      4.2064                11.8129                10.3538
 IR Inten    --     87.5679                42.4553               194.4196

                     43                     44                     45
                      A                      A                      A
 Frequencies --   1839.2772              3047.1041              3110.0235
 Red. masses --     10.1901                 1.0346                 1.1061
 Frc consts  --     20.3106                 5.6600                 6.3033
 IR Inten    --    444.9562                38.1295                23.1394

                     46                     47                     48
                      A                      A                      A
 Frequencies --   3175.1968              3218.7031              3227.6954
 Red. masses --      1.1005                 1.0886                 1.0896
 Frc consts  --      6.5370                 6.6445                 6.6880
 IR Inten    --     14.2592                 0.0829                 0.4927

                     49                     50                     51
                      A                      A                      A
 Frequencies --   3232.0818              3246.2543              3822.9442
 Red. masses --      1.0959                 1.0932                 1.0646
 Frc consts  --      6.7449                 6.7878                 9.1670
 IR Inten    --      1.5639                 3.3327               129.2637

 - Thermochemistry -
 -------------------
 Temperature   298.150 Kelvin.  Pressure   1.00000 Atm.
 Atom     1 has atomic number  6 and mass  12.00000

 Molecular mass:   152.04734 amu.
 Principal axes and moments of inertia in atomic units:
                           1         2         3
     Eigenvalues --   519.210163131.710703639.47909
           X            0.99996   0.00869   0.00000
           Y           -0.00869   0.99996   0.00000
           Z            0.00000   0.00000   1.00000
 This molecule is an asymmetric top.
 Rotational symmetry number  1.
 Warning -- assumption of classical behavior for rotation
           may cause significant error
 Rotational temperatures (Kelvin)      0.16682     0.02766     0.02380
 Rotational constants (GHZ):           3.47594     0.57628     0.49588
 Zero-point vibrational energy     393053.2 (Joules/Mol)
                                   93.94196 (Kcal/Mol)
 Warning -- explicit consideration of  14 degrees of freedom as
           vibrations may cause significant error
 Vibrational temperatures:     95.68   116.14   197.06   248.02   362.43
          (Kelvin)            405.13   450.78   490.46   615.46   701.79
                              742.47   743.19   853.49   880.93   930.04
                             1031.99  1065.02  1153.10  1218.48  1221.20
                             1277.07  1430.64  1465.79  1484.33  1589.31
                             1622.33  1644.70  1705.20  1714.52  1749.70
                             1765.16  1886.19  1913.76  1954.16  2004.96
                             2114.40  2136.76  2170.21  2181.50  2254.02
                             2371.15  2418.52  2646.31  4384.10  4474.63
                             4568.40  4631.00  4643.93  4650.24  4670.64
                             5500.36

 Zero-point correction=                           0.149706 (Hartree/Particle)
 Thermal correction to Energy=                    0.159255
 Thermal correction to Enthalpy=                  0.160199
 Thermal correction to Gibbs Free Energy=         0.114413
 Sum of electronic and zero-point Energies=           -535.197524
 Sum of electronic and thermal Energies=              -535.187975
 Sum of electronic and thermal Enthalpies=            -535.187031
 Sum of electronic and thermal Free Energies=         -535.232818

                     E (Thermal)             CV                S
                      KCal/Mol        Cal/Mol-Kelvin    Cal/Mol-Kelvin
 Total                   99.934             36.013             96.366
 Electronic               0.000              0.000              0.000
 Translational            0.889              2.981             40.967
 Rotational               0.889              2.981             30.160
 Vibrational             98.157             30.052             25.239
 Vibration     1          0.598              1.970              4.254
 Vibration     2          0.600              1.962              3.873
 Vibration     3          0.614              1.916              2.846
 Vibration     4          0.626              1.876              2.409
 Vibration     5          0.664              1.760              1.717
 Vibration     6          0.681              1.708              1.524
 Vibration     7          0.701              1.648              1.345
 Vibration     8          0.720              1.594              1.208
 Vibration     9          0.789              1.410              0.866
 Vibration    10          0.844              1.277              0.689
 Vibration    11          0.871              1.214              0.619
 Vibration    12          0.872              1.213              0.618
 Vibration    13          0.951              1.046              0.461
 Vibration    14          0.972              1.006              0.429

 Optimization completed.
    -- Stationary point found.
 Normal termination of Gaussian 16 at Mon Sep  5 21:01:59 2022.
