 Gaussian 16, Revision C.01,
 Gaussian 16:  ES64L-G16RevC.01  3-Jul-2019

 ------------------------------------
 # opt freq M062x/aug-cc-pvtz pop=nbo
 ------------------------------------

 -----------------
 CYH-255-A_eq00004
 -----------------
 Symbolic Z-matrix:
 Charge =  0 Multiplicity = 1

 SCF Done:  E(RM062X) =  -574.452650741     A.U. after   13 cycles
 SCF Done:  E(RM062X) =  -574.453154282     A.U. after   11 cycles
 SCF Done:  E(RM062X) =  -574.453187571     A.U. after    9 cycles
 SCF Done:  E(RM062X) =  -574.453174980     A.U. after   10 cycles
 SCF Done:  E(RM062X) =  -574.453188695     A.U. after   10 cycles
 SCF Done:  E(RM062X) =  -574.453193210     A.U. after    9 cycles
 Optimization completed.
    -- Stationary point found.
 Normal termination of Gaussian 16 at Thu Apr 27 16:33:34 2023.

 ----------------------------------------------------------------------
 #N Geom=AllCheck Guess=TCheck SCRF=Check GenChk RM062X/Aug-CC-pVTZ Fre
 q
 ----------------------------------------------------------------------

 Structure from the checkpoint file:  "CYH-255-A_eq00004.chk"
 -----------------
 CYH-255-A_eq00004
 -----------------
 Charge =  0 Multiplicity = 1

                         Standard orientation:
 ---------------------------------------------------------------------
 Center     Atomic      Atomic             Coordinates (Angstroms)
 Number     Number       Type             X           Y           Z
 ---------------------------------------------------------------------
      1          6           0        1.419133    0.064272   -0.000074
      2          6           0        1.061710    1.434185   -0.000278
      3          6           0       -0.254016    1.792798   -0.000367
      4          6           0       -1.276572    0.812191   -0.000158
      5          6           0       -0.915292   -0.559778    0.000104
      6          6           0        0.452896   -0.905838    0.000093
      7          6           0        2.838761   -0.371214   -0.000096
      8          6           0       -2.649005    1.157095   -0.000190
      9          6           0       -3.610451    0.186856    0.000034
     10          6           0       -3.250421   -1.179596    0.000304
     11          6           0       -1.934753   -1.543255    0.000340
     12          8           0        3.209681   -1.514297   -0.001125
     13          8           0        3.704689    0.661343    0.001229
     14          1           0        1.839429    2.183337   -0.000366
     15          1           0       -0.535960    2.837871   -0.000594
     16          1           0        0.750199   -1.946731    0.000190
     17          1           0       -2.923372    2.204272   -0.000387
     18          1           0       -4.656451    0.461520    0.000009
     19          1           0       -4.023627   -1.935323    0.000481
     20          1           0       -1.649419   -2.587420    0.000547
     21          1           0        4.592292    0.279799    0.001013
 ---------------------------------------------------------------------

 SCF Done:  E(RM062X) =  -574.453193210     A.U. after    1 cycles

 The electronic state is 1-A.
 Alpha  occ. eigenvalues --  -19.67777 -19.62001 -10.68314 -10.56612 -10.56567
 Alpha  occ. eigenvalues --  -10.56401 -10.56120 -10.55720 -10.55641 -10.55589
 Alpha  occ. eigenvalues --  -10.55537 -10.55472 -10.55391  -1.24546  -1.14793
 Alpha  occ. eigenvalues --   -1.00041  -0.94610  -0.89055  -0.86399  -0.83361
 Alpha  occ. eigenvalues --   -0.76642  -0.71834  -0.69827  -0.68617  -0.61991
 Alpha  occ. eigenvalues --   -0.60305  -0.59200  -0.57067  -0.54626  -0.54351
 Alpha  occ. eigenvalues --   -0.52987  -0.50706  -0.49803  -0.48852  -0.48475
 Alpha  occ. eigenvalues --   -0.48049  -0.44478  -0.41553  -0.41497  -0.40233
 Alpha  occ. eigenvalues --   -0.40113  -0.36540  -0.36070  -0.31280  -0.28286
 Alpha virt. eigenvalues --   -0.04048  -0.01295  -0.00753  -0.00200   0.00304
 Alpha virt. eigenvalues --    0.01214   0.01988   0.02167   0.02978   0.03835
 Alpha virt. eigenvalues --    0.03934   0.04006   0.04296   0.04943   0.05359

 Mulliken charges:
               1
     1  C    1.379896
     2  C   -0.183521
     3  C   -0.890262
     4  C    1.451504
     5  C    1.270618
     6  C   -0.987350
     7  C    0.440464
     8  C   -0.661879
     9  C   -0.145272
    10  C   -0.320668
    11  C   -0.735811
    12  O   -0.946928
    13  O   -0.521367
    14  H    0.099664
    15  H   -0.050762
    16  H   -0.081789
    17  H    0.128744
    18  H    0.137255
    19  H    0.178515
    20  H    0.145413
    21  H    0.293534
 Sum of Mulliken charges =   0.00000

 Dipole moment (field-independent basis, Debye):
    X=             -1.5311    Y=              1.5137    Z=              0.0013  Tot=              2.1530
 Quadrupole moment (field-independent basis, Debye-Ang):
   XX=            -63.7269   YY=            -71.7733   ZZ=            -78.9693
   XY=              5.8963   XZ=              0.0052   YZ=             -0.0081

  Exact polarizability:     207.251       5.894     139.304      -0.003      -0.003      72.828
 Approx polarizability:     246.744       7.562     198.530      -0.005      -0.003     101.286

 Summary of Natural Population Analysis:

                                       Natural Population
                Natural  -----------------------------------------------
    Atom  No    Charge         Core      Valence    Rydberg      Total
 -----------------------------------------------------------------------
      C    1   -0.19930      1.99902     4.16885    0.03143     6.19930
      C    2   -0.17600      1.99920     4.15981    0.01699     6.17600
      C    3   -0.17807      1.99919     4.16192    0.01696     6.17807
      C    4   -0.04669      1.99912     4.02481    0.02275     6.04669
      C    5   -0.08797      1.99915     4.06132    0.02750     6.08797
      C    6   -0.06437      1.99911     4.04751    0.01775     6.06437
      C    7    0.80505      1.99939     3.16190    0.03366     5.19495
      C    8   -0.18176      1.99919     4.16607    0.01650     6.18176
      C    9   -0.19192      1.99927     4.17539    0.01726     6.19192
      C   10   -0.20607      1.99927     4.18941    0.01739     6.20607
      C   11   -0.16685      1.99919     4.15065    0.01701     6.16685
      O   12   -0.60522      1.99977     6.57389    0.03156     8.60522
      O   13   -0.70131      1.99978     6.67660    0.02493     8.70131
      H   14    0.22845      0.00000     0.76841    0.00314     0.77155
      H   15    0.20947      0.00000     0.78792    0.00261     0.79053
      H   16    0.22337      0.00000     0.77177    0.00485     0.77663
      H   17    0.20842      0.00000     0.78874    0.00284     0.79158
      H   18    0.21067      0.00000     0.78676    0.00257     0.78933
      H   19    0.21150      0.00000     0.78594    0.00256     0.78850
      H   20    0.21035      0.00000     0.78664    0.00302     0.78965
      H   21    0.49831      0.00000     0.49845    0.00323     0.50169
 =======================================================================
   * Total *    0.00006     25.99065    63.69276    0.31652    89.99994

                      1                      2                      3
                      A                      A                      A
 Frequencies --     57.8311                90.9210               170.7219
 Red. masses --      8.4179                 5.4790                 6.5680
 Frc consts  --      0.0166                 0.0267                 0.1128
 IR Inten    --      1.7127                 0.0881                 1.0797

                      4                      5                      6
                      A                      A                      A
 Frequencies --    181.8510               244.4099               332.3648
 Red. masses --      3.7037                 4.7380                 8.4628
 Frc consts  --      0.0722                 0.1668                 0.5508
 IR Inten    --      0.9652                 0.0015                 2.4444

                      7                      8                      9
                      A                      A                      A
 Frequencies --    358.5411               400.2841               482.1685
 Red. masses --      5.1513                 3.1287                 2.7986
 Frc consts  --      0.3902                 0.2954                 0.3833
 IR Inten    --      0.0702                 0.2388                22.6706

                     10                     11                     12
                      A                      A                      A
 Frequencies --    497.3286               524.8506               528.6203
 Red. masses --      2.8060                 6.6187                 6.1323
 Frc consts  --      0.4089                 1.0742                 1.0096
 IR Inten    --      2.7386                 0.6049                 5.4372

                     13                     14                     15
                      A                      A                      A
 Frequencies --    589.4675               595.0411               638.9875
 Red. masses --      6.1637                 1.4643                 6.2921
 Frc consts  --      1.2619                 0.3055                 1.5137
 IR Inten    --     39.6067                58.9658                 1.3421

                     16                     17                     18
                      A                      A                      A
 Frequencies --    651.9407               724.4225               757.8634
 Red. masses --      2.3083                 4.3886                 1.4609
 Frc consts  --      0.5780                 1.3569                 0.4944
 IR Inten    --     25.6775                53.1761                 0.0939

                     19                     20                     21
                      A                      A                      A
 Frequencies --    790.3960               794.3574               811.6538
 Red. masses --      2.6022                 4.7023                 2.9047
 Frc consts  --      0.9578                 1.7482                 1.1274
 IR Inten    --     25.7751                 0.4133                84.1963

                     22                     23                     24
                      A                      A                      A
 Frequencies --    857.1546               889.9449               903.3317
 Red. masses --      1.4596                 5.2497                 1.6779
 Frc consts  --      0.6318                 2.4497                 0.8067
 IR Inten    --      7.0515                 0.3872                 7.6798

                     25                     26                     27
                      A                      A                      A
 Frequencies --    968.7502               971.1842              1000.4329
 Red. masses --      1.5320                 4.6326                 1.3645
 Frc consts  --      0.8471                 2.5744                 0.8047
 IR Inten    --      5.6679                 4.5038                 2.8165

                     28                     29                     30
                      A                      A                      A
 Frequencies --   1015.7486              1026.0561              1050.8122
 Red. masses --      1.3581                 1.3219                 2.2948
 Frc consts  --      0.8256                 0.8199                 1.4929
 IR Inten    --      1.5921                 0.0181                 2.1122

                     31                     32                     33
                      A                      A                      A
 Frequencies --   1129.3703              1158.7804              1170.0233
 Red. masses --      2.2257                 1.4345                 1.4711
 Frc consts  --      1.6726                 1.1349                 1.1865
 IR Inten    --     15.7629                 8.9035                21.0233

                     34                     35                     36
                      A                      A                      A
 Frequencies --   1183.8185              1200.2208              1232.3729
 Red. masses --      1.1389                 1.8265                 2.1568
 Frc consts  --      0.9404                 1.5502                 1.9300
 IR Inten    --      3.7590               394.7177                10.7409

                     37                     38                     39
                      A                      A                      A
 Frequencies --   1271.1984              1292.4136              1379.5539
 Red. masses --      1.4810                 1.7809                 2.6697
 Frc consts  --      1.4101                 1.7526                 2.9936
 IR Inten    --      0.5686                 7.2943               126.2995

                     40                     41                     42
                      A                      A                      A
 Frequencies --   1391.9097              1415.2483              1431.4912
 Red. masses --      2.0086                 3.8348                 5.8029
 Frc consts  --      2.2928                 4.5254                 7.0060
 IR Inten    --     11.0849                47.0601                18.8209

                     43                     44                     45
                      A                      A                      A
 Frequencies --   1484.7621              1516.5449              1564.0620
 Red. masses --      2.6125                 2.7028                 3.7704
 Frc consts  --      3.3933                 3.6625                 5.4343
 IR Inten    --      3.6643                28.0630                 6.6411

                     46                     47                     48
                      A                      A                      A
 Frequencies --   1649.4811              1678.0193              1706.9224
 Red. masses --      7.5585                 5.7823                 6.6538
 Frc consts  --     12.1167                 9.5927                11.4221
 IR Inten    --      2.4082                16.0703                32.1264

                     49                     50                     51
                      A                      A                      A
 Frequencies --   1844.9626              3196.3646              3201.1650
 Red. masses --     10.3362                 1.0866                 1.0892
 Frc consts  --     20.7295                 6.5407                 6.5760
 IR Inten    --    385.7933                 0.9804                 0.3895

                     52                     53                     54
                      A                      A                      A
 Frequencies --   3202.8035              3212.8474              3213.9812
 Red. masses --      1.0898                 1.0917                 1.0942
 Frc consts  --      6.5863                 6.6397                 6.6594
 IR Inten    --      4.2058                 2.5456                10.4636

                     55                     56                     57
                      A                      A                      A
 Frequencies --   3225.3923              3239.4668              3816.6042
 Red. masses --      1.0979                 1.0937                 1.0645
 Frc consts  --      6.7292                 6.7623                 9.1363
 IR Inten    --     10.0487                 1.7713               142.6555

 - Thermochemistry -
 -------------------
 Temperature   298.150 Kelvin.  Pressure   1.00000 Atm.
 Atom     1 has atomic number  6 and mass  12.00000

 Molecular mass:   172.05243 amu.
 Principal axes and moments of inertia in atomic units:
                           1         2         3
     Eigenvalues --   801.041013709.326064510.36669
           X            0.99998   0.00696   0.00000
           Y           -0.00696   0.99998  -0.00003
           Z            0.00000   0.00003   1.00000
 This molecule is an asymmetric top.
 Rotational symmetry number  1.
 Warning -- assumption of classical behavior for rotation
           may cause significant error
 Rotational temperatures (Kelvin)      0.10813     0.02335     0.01920
 Rotational constants (GHZ):           2.25299     0.48654     0.40013
 Zero-point vibrational energy     430160.5 (Joules/Mol)
                                  102.81083 (Kcal/Mol)
 Warning -- explicit consideration of  14 degrees of freedom as
           vibrations may cause significant error
 Vibrational temperatures:     83.21   130.82   245.63   261.64   351.65
          (Kelvin)            478.20   515.86   575.92   693.73   715.54
                              755.14   760.57   848.11   856.13   919.36
                              938.00  1042.28  1090.40  1137.20  1142.90
                             1167.79  1233.25  1280.43  1299.69  1393.82
                             1397.32  1439.40  1461.44  1476.27  1511.88
                             1624.91  1667.23  1683.40  1703.25  1726.85
                             1773.11  1828.97  1859.49  1984.87  2002.65
                             2036.23  2059.60  2136.24  2181.97  2250.34
                             2373.24  2414.30  2455.88  2654.49  4598.86
                             4605.76  4608.12  4622.57  4624.20  4640.62
                             4660.87  5491.24

 Zero-point correction=                           0.163839 (Hartree/Particle)
 Thermal correction to Energy=                    0.173460
 Thermal correction to Enthalpy=                  0.174404
 Thermal correction to Gibbs Free Energy=         0.128236
 Sum of electronic and zero-point Energies=           -574.289354
 Sum of electronic and thermal Energies=              -574.279733
 Sum of electronic and thermal Enthalpies=            -574.278789
 Sum of electronic and thermal Free Energies=         -574.324957

                     E (Thermal)             CV                S
                      KCal/Mol        Cal/Mol-Kelvin    Cal/Mol-Kelvin
 Total                  108.848             38.614             97.168
 Electronic               0.000              0.000              0.000
 Translational            0.889              2.981             41.335
 Rotational               0.889              2.981             30.972
 Vibrational            107.070             32.653             24.860
 Vibration     1          0.596              1.974              4.530
 Vibration     2          0.602              1.956              3.640
 Vibration     3          0.626              1.879              2.428
 Vibration     4          0.630              1.864              2.309
 Vibration     5          0.660              1.772              1.771
 Vibration     6          0.714              1.611              1.249
 Vibration     7          0.733              1.558              1.128
 Vibration     8          0.766              1.470              0.962
 Vibration     9          0.838              1.290              0.704
 Vibration    10          0.853              1.256              0.665
 Vibration    11          0.880              1.195              0.599
 Vibration    12          0.884              1.187              0.590
 Vibration    13          0.947              1.054              0.468
 Vibration    14          0.953              1.042              0.458

                           ! Non-Optimized Parameters !
 Normal termination of Gaussian 16 at Thu Apr 27 18:07:08 2023.
