 Gaussian 16, Revision C.01,
 Gaussian 16:  ES64L-G16RevC.01  3-Jul-2019

 ------------------------------------------
 # opt=tight freq aug-cc-pvtz pop=nbo m062x
 ------------------------------------------

 -------------------
 CYH-220-A_eq00001_2
 -------------------
 Symbolic Z-matrix:
 Charge =  0 Multiplicity = 1

 SCF Done:  E(RM062X) =  -932.710815231     A.U. after   14 cycles
 SCF Done:  E(RM062X) =  -932.713584904     A.U. after   13 cycles
 SCF Done:  E(RM062X) =  -932.714285405     A.U. after   12 cycles
 SCF Done:  E(RM062X) =  -932.713742781     A.U. after   13 cycles
 SCF Done:  E(RM062X) =  -932.714577953     A.U. after   12 cycles
 SCF Done:  E(RM062X) =  -932.714552820     A.U. after   11 cycles
 SCF Done:  E(RM062X) =  -932.714595230     A.U. after   10 cycles
 SCF Done:  E(RM062X) =  -932.714597179     A.U. after    8 cycles
 SCF Done:  E(RM062X) =  -932.714597662     A.U. after    8 cycles
 SCF Done:  E(RM062X) =  -932.714597675     A.U. after    6 cycles
 SCF Done:  E(RM062X) =  -932.714597677     A.U. after    5 cycles
 SCF Done:  E(RM062X) =  -932.714597677     A.U. after    4 cycles
 SCF Done:  E(RM062X) =  -932.714597677     A.U. after    5 cycles
 SCF Done:  E(RM062X) =  -932.714597677     A.U. after    4 cycles
 Optimization completed.
    -- Stationary point found.
 Normal termination of Gaussian 16 at Thu May 11 23:23:10 2023.

 ----------------------------------------------------------------------
 #N Geom=AllCheck Guess=TCheck SCRF=Check GenChk RM062X/Aug-CC-pVTZ Fre
 q
 ----------------------------------------------------------------------

 Structure from the checkpoint file:  "CYH-220-A_eq00001_2.chk"
 -------------------
 CYH-220-A_eq00001_2
 -------------------
 Charge =  0 Multiplicity = 1

                         Standard orientation:
 ---------------------------------------------------------------------
 Center     Atomic      Atomic             Coordinates (Angstroms)
 Number     Number       Type             X           Y           Z
 ---------------------------------------------------------------------
      1          6           0        3.144979    0.004494   -0.039678
      2          6           0        3.555058    1.261451    0.389861
      3          6           0        2.606237    2.209963    0.729326
      4          6           0        1.254765    1.908397    0.650187
      5          6           0        0.853632    0.650323    0.215654
      6          6           0        1.795092   -0.307485   -0.135069
      7          7           0       -0.529155    0.341928    0.128410
      8          6           0       -1.095307   -0.885792    0.525269
      9          6           0       -2.554541   -0.765454    0.253858
     10          6           0       -2.800087    0.486792   -0.277365
     11          6           0       -1.508945    1.223348   -0.367258
     12          6           0       -3.567142   -1.678604    0.458854
     13          6           0       -4.855134   -1.285900    0.105109
     14          6           0       -5.102520   -0.024120   -0.431565
     15          6           0       -4.070515    0.888509   -0.632369
     16          8           0       -1.313414    2.333584   -0.774571
     17          8           0       -0.499292   -1.816211    0.988411
     18          6           0        4.194669   -0.985464   -0.398314
     19          8           0        5.376454   -0.782498   -0.325761
     20          8           0        3.691159   -2.157902   -0.824701
     21          1           0        4.613250    1.472415    0.449987
     22          1           0        2.914216    3.190495    1.063377
     23          1           0        0.511393    2.645132    0.914634
     24          1           0        1.484084   -1.285016   -0.468356
     25          1           0       -3.360080   -2.654335    0.875692
     26          1           0       -5.680199   -1.969886    0.247884
     27          1           0       -6.115090    0.247982   -0.695460
     28          1           0       -4.247582    1.870981   -1.047191
     29          1           0        4.443395   -2.729802   -1.025469
 ---------------------------------------------------------------------

 SCF Done:  E(RM062X) =  -932.714597677     A.U. after    2 cycles

 The electronic state is 1-A.
 Alpha  occ. eigenvalues --  -19.67780 -19.64059 -19.64031 -19.62144 -14.81913
 Alpha  occ. eigenvalues --  -10.68442 -10.68435 -10.68404 -10.60704 -10.58377
 Alpha  occ. eigenvalues --  -10.58296 -10.58179 -10.58168 -10.58009 -10.57930
 Alpha  occ. eigenvalues --  -10.56929 -10.56455 -10.56418 -10.55930 -10.55835
 Alpha  occ. eigenvalues --   -1.24643  -1.22030  -1.20253  -1.14925  -1.09763
 Alpha  occ. eigenvalues --   -1.01219  -0.98379  -0.91719  -0.88865  -0.88114
 Alpha  occ. eigenvalues --   -0.85701  -0.77889  -0.76980  -0.76375  -0.72171
 Alpha  occ. eigenvalues --   -0.70429  -0.69121  -0.65969  -0.62740  -0.61098
 Alpha  occ. eigenvalues --   -0.59269  -0.58913  -0.58151  -0.57525  -0.56467
 Alpha  occ. eigenvalues --   -0.54760  -0.54626  -0.54199  -0.53509  -0.53170
 Alpha  occ. eigenvalues --   -0.52920  -0.51568  -0.49577  -0.48620  -0.47491
 Alpha  occ. eigenvalues --   -0.46349  -0.45801  -0.45389  -0.44331  -0.43567
 Alpha  occ. eigenvalues --   -0.40837  -0.38615  -0.38214  -0.36781  -0.35812
 Alpha  occ. eigenvalues --   -0.34893  -0.34651  -0.32874  -0.30681
 Alpha virt. eigenvalues --   -0.06295  -0.03457  -0.02548  -0.01281  -0.00361
 Alpha virt. eigenvalues --    0.00145   0.00453   0.00589   0.00969   0.01743
 Alpha virt. eigenvalues --    0.02431   0.02539   0.02882   0.03566   0.03587

 Mulliken charges:
               1
     1  C    1.227856
     2  C   -0.291896
     3  C   -0.462792
     4  C   -0.452902
     5  C    0.494277
     6  C   -0.344888
     7  N    0.431172
     8  C    0.341655
     9  C    1.020472
    10  C    1.000663
    11  C    0.297707
    12  C   -0.986749
    13  C   -0.172879
    14  C   -0.163688
    15  C   -0.977710
    16  O   -1.012844
    17  O   -1.037787
    18  C    0.399409
    19  O   -0.942474
    20  O   -0.539193
    21  H    0.302972
    22  H    0.154788
    23  H    0.319450
    24  H    0.123005
    25  H    0.267165
    26  H    0.224854
    27  H    0.230159
    28  H    0.261479
    29  H    0.288721
 Sum of Mulliken charges =   0.00000

 Dipole moment (field-independent basis, Debye):
    X=             -4.8160    Y=             -0.5915    Z=             -0.1384  Tot=              4.8541
 Quadrupole moment (field-independent basis, Debye-Ang):
   XX=           -101.7730   YY=           -109.4265   ZZ=           -115.5974
   XY=              3.4785   XZ=             -0.0881   YZ=              7.2467

  Exact polarizability:     278.266       6.190     194.413       7.179      -4.015     114.033
 Approx polarizability:     300.327       1.826     275.838      10.354     -12.027     162.367

 Summary of Natural Population Analysis:

                                       Natural Population
                Natural  -----------------------------------------------
    Atom  No    Charge         Core      Valence    Rydberg      Total
 -----------------------------------------------------------------------
      C    1   -0.16906      1.99900     4.14316    0.02691     6.16906
      C    2   -0.19151      1.99927     4.15908    0.03315     6.19151
      C    3   -0.09697      1.99927     4.07366    0.02404     6.09697
      C    4   -0.21845      1.99924     4.17834    0.04087     6.21845
      C    5    0.13192      1.99902     3.84305    0.02601     5.86808
      C    6   -0.16216      1.99909     4.14290    0.02017     6.16216
      N    7   -0.51220      1.99929     5.48483    0.02807     7.51220
      C    8    0.70424      1.99934     3.26164    0.03478     5.29576
      C    9   -0.11834      1.99896     4.09572    0.02367     6.11834
      C   10   -0.11858      1.99896     4.09597    0.02365     6.11858
      C   11    0.70442      1.99934     3.26139    0.03485     5.29558
      C   12   -0.16163      1.99916     4.14642    0.01605     6.16163
      C   13   -0.18168      1.99930     4.16555    0.01683     6.18168
      C   14   -0.18186      1.99930     4.16572    0.01684     6.18186
      C   15   -0.16185      1.99916     4.14664    0.01605     6.16185
      O   16   -0.54583      1.99978     6.51463    0.03142     8.54583
      O   17   -0.54191      1.99977     6.51061    0.03153     8.54191
      C   18    0.80660      1.99939     3.16077    0.03323     5.19340
      O   19   -0.60118      1.99977     6.56959    0.03183     8.60118
      O   20   -0.69744      1.99978     6.67265    0.02501     8.69744
      H   21    0.23512      0.00000     0.76196    0.00292     0.76488
      H   22    0.20199      0.00000     0.79076    0.00725     0.79801
      H   23    0.23135      0.00000     0.76622    0.00243     0.76865
      H   24    0.24841      0.00000     0.74861    0.00298     0.75159
      H   25    0.23267      0.00000     0.76446    0.00287     0.76733
      H   26    0.21645      0.00000     0.78123    0.00232     0.78355
      H   27    0.21643      0.00000     0.78125    0.00232     0.78357
      H   28    0.23245      0.00000     0.76468    0.00287     0.76755
      H   29    0.49893      0.00000     0.49779    0.00328     0.50107
 =======================================================================
   * Total *    0.00032     39.98618    97.44928    0.56422   137.99968

                      1                      2                      3
                      A                      A                      A
 Frequencies --     35.2307                41.3918                53.6929
 Red. masses --      7.7039                 7.2169                 9.5398
 Frc consts  --      0.0056                 0.0073                 0.0162
 IR Inten    --      0.4204                 0.2185                 1.9430

                      4                      5                      6
                      A                      A                      A
 Frequencies --     83.9689               130.3242               139.2859
 Red. masses --      6.1869                 8.6782                 5.1886
 Frc consts  --      0.0257                 0.0868                 0.0593
 IR Inten    --      2.0403                 3.8754                 0.1802

                      7                      8                      9
                      A                      A                      A
 Frequencies --    166.3160               176.4320               208.5201
 Red. masses --      5.0824                 7.1770                 5.8837
 Frc consts  --      0.0828                 0.1316                 0.1507
 IR Inten    --      1.0332                 0.8363                 0.9036

                     10                     11                     12
                      A                      A                      A
 Frequencies --    254.8614               259.5768               285.6661
 Red. masses --      6.6336                 8.8531                 5.8318
 Frc consts  --      0.2539                 0.3515                 0.2804
 IR Inten    --      1.6601                 2.2510                 0.6941

                     13                     14                     15
                      A                      A                      A
 Frequencies --    367.4008               372.2873               401.5100
 Red. masses --     10.1122                 6.8808                 6.1925
 Frc consts  --      0.8042                 0.5619                 0.5882
 IR Inten    --     16.2159                 2.1126                 3.9422

                     16                     17                     18
                      A                      A                      A
 Frequencies --    423.3795               435.3113               473.4667
 Red. masses --      3.4671                 2.9897                 4.6874
 Frc consts  --      0.3662                 0.3338                 0.6191
 IR Inten    --      0.6911                 7.6661                 0.0089

                     19                     20                     21
                      A                      A                      A
 Frequencies --    520.0721               537.1072               542.9706
 Red. masses --      5.7968                 3.3598                 6.3493
 Frc consts  --      0.9238                 0.5711                 1.1029
 IR Inten    --      7.2227                 8.1260                 4.2208

                     22                     23                     24
                      A                      A                      A
 Frequencies --    580.5305               611.1883               639.6727
 Red. masses --      9.1449                 1.4141                 9.2392
 Frc consts  --      1.8158                 0.3112                 2.2274
 IR Inten    --      5.0350                87.8834                33.3928

                     25                     26                     27
                      A                      A                      A
 Frequencies --    652.3872               691.8778               706.0275
 Red. masses --      5.1348                 4.9733                 2.9060
 Frc consts  --      1.2876                 1.4027                 0.8535
 IR Inten    --     55.4111                 0.2130                 0.3636

                     28                     29                     30
                      A                      A                      A
 Frequencies --    718.4751               725.2417               745.7381
 Red. masses --      6.3065                 3.9947                 2.2403
 Frc consts  --      1.9181                 1.2380                 0.7340
 IR Inten    --      8.5994                13.6778                60.7477

                     31                     32                     33
                      A                      A                      A
 Frequencies --    787.1150               790.6988               824.9303
 Red. masses --      3.7773                 3.9227                 2.1354
 Frc consts  --      1.3788                 1.4450                 0.8562
 IR Inten    --     52.8907                47.6554                 4.8985

                     34                     35                     36
                      A                      A                      A
 Frequencies --    833.0073               850.4370               897.9984
 Red. masses --      4.9198                 1.8084                 6.3698
 Frc consts  --      2.0114                 0.7706                 3.0264
 IR Inten    --      0.6802                 3.5644                22.4017

                     37                     38                     39
                      A                      A                      A
 Frequencies --    933.8845               938.6946               955.8097
 Red. masses --      1.4469                 4.8601                 1.6122
 Frc consts  --      0.7435                 2.5231                 0.8678
 IR Inten    --      0.0360                12.3317                 5.3361

                     40                     41                     42
                      A                      A                      A
 Frequencies --    975.5947              1006.7144              1025.0605
 Red. masses --      1.4249                 1.3996                 6.0959
 Frc consts  --      0.7990                 0.8358                 3.7739
 IR Inten    --      1.9305                 0.8435                 0.7483

                     43                     44                     45
                      A                      A                      A
 Frequencies --   1034.0634              1042.3648              1042.4417
 Red. masses --      1.3503                 1.9081                 1.3993
 Frc consts  --      0.8507                 1.2215                 0.8959
 IR Inten    --      0.1989                 1.9879                 0.2284

                     46                     47                     48
                      A                      A                      A
 Frequencies --   1106.2379              1113.7999              1127.9691
 Red. masses --      2.1714                 2.1501                 2.2172
 Frc consts  --      1.5657                 1.5716                 1.6621
 IR Inten    --     15.9316                29.1462                52.6235

                     49                     50                     51
                      A                      A                      A
 Frequencies --   1151.1631              1159.6861              1180.6652
 Red. masses --      4.0297                 2.1860                 1.3216
 Frc consts  --      3.1463                 1.7321                 1.0854
 IR Inten    --    142.6361                12.0471                21.1305

                     52                     53                     54
                      A                      A                      A
 Frequencies --   1192.8258              1200.4641              1212.6788
 Red. masses --      1.1611                 2.1884                 1.8816
 Frc consts  --      0.9734                 1.8581                 1.6303
 IR Inten    --     22.5771                10.7157               162.6763

                     55                     56                     57
                      A                      A                      A
 Frequencies --   1262.5269              1314.6005              1319.2795
 Red. masses --      3.6022                 1.5700                 2.3246
 Frc consts  --      3.3830                 1.5986                 2.3838
 IR Inten    --     57.8322                 1.4588                10.4363

                     58                     59                     60
                      A                      A                      A
 Frequencies --   1344.4356              1378.1796              1398.5163
 Red. masses --      2.1475                 4.1792                 3.4078
 Frc consts  --      2.2869                 4.6769                 3.9269
 IR Inten    --      0.3861                15.5710               140.8522

                     61                     62                     63
                      A                      A                      A
 Frequencies --   1421.6095              1494.5314              1513.5462
 Red. masses --      6.3199                 3.8011                 2.6529
 Frc consts  --      7.5252                 5.0023                 3.5806
 IR Inten    --    650.7319                79.8351                 9.0506

                     64                     65                     66
                      A                      A                      A
 Frequencies --   1515.3727              1542.3828              1664.6742
 Red. masses --      2.8146                 2.9048                 6.6063
 Frc consts  --      3.8081                 4.0715                10.7861
 IR Inten    --      2.9494                93.7036                44.6103

                     67                     68                     69
                      A                      A                      A
 Frequencies --   1677.7703              1684.1461              1684.9564
 Red. masses --      6.4417                 7.3800                 7.6951
 Frc consts  --     10.6836                12.3330                12.8718
 IR Inten    --     16.9086                 7.4552                 0.0806

                     70                     71                     72
                      A                      A                      A
 Frequencies --   1838.6416              1848.2952              1895.1181
 Red. masses --     12.9877                10.4446                13.0245
 Frc consts  --     25.8689                21.0225                27.5603
 IR Inten    --    638.2736               440.9969                52.3362

                     73                     74                     75
                      A                      A                      A
 Frequencies --   3206.1994              3217.1731              3217.5697
 Red. masses --      1.0873                 1.0883                 1.0906
 Frc consts  --      6.5854                 6.6368                 6.6524
 IR Inten    --      1.0209                 4.3609                 1.3389

                     76                     77                     78
                      A                      A                      A
 Frequencies --   3225.9640              3230.5295              3234.0833
 Red. masses --      1.0948                 1.0978                 1.0933
 Frc consts  --      6.7129                 6.7502                 6.7376
 IR Inten    --      0.3384                 6.4194                 1.6330

                     79                     80                     81
                      A                      A                      A
 Frequencies --   3242.4230              3258.2782              3818.2808
 Red. masses --      1.0956                 1.0922                 1.0646
 Frc consts  --      6.7863                 6.8315                 9.1447
 IR Inten    --      0.6118                 3.5204               135.2032

 - Thermochemistry -
 -------------------
 Temperature   298.150 Kelvin.  Pressure   1.00000 Atm.
 Atom     1 has atomic number  6 and mass  12.00000

 Molecular mass:   267.05316 amu.
 Principal axes and moments of inertia in atomic units:
                           1         2         3
     Eigenvalues --  2088.441229764.45453**********
           X            0.99998   0.00642   0.00187
           Y           -0.00644   0.99991   0.01135
           Z           -0.00180  -0.01137   0.99993
 This molecule is an asymmetric top.
 Rotational symmetry number  1.
 Warning -- assumption of classical behavior for rotation
           may cause significant error
 Rotational temperatures (Kelvin)      0.04147     0.00887     0.00766
 Rotational constants (GHZ):           0.86416     0.18483     0.15959
 Zero-point vibrational energy     561128.1 (Joules/Mol)
                                  134.11285 (Kcal/Mol)
 Warning -- explicit consideration of  23 degrees of freedom as
           vibrations may cause significant error
 Vibrational temperatures:     50.69    59.55    77.25   120.81   187.51
          (Kelvin)            200.40   239.29   253.85   300.01   366.69
                              373.47   411.01   528.61   535.64   577.68
                              609.15   626.32   681.21   748.27   772.78
                              781.21   835.25   879.36   920.35   938.64
                              995.46  1015.82  1033.73  1043.46  1072.95
                             1132.48  1137.64  1186.89  1198.51  1223.59
                             1292.02  1343.65  1350.57  1375.20  1403.66
                             1448.44  1474.83  1487.79  1499.73  1499.84
                             1591.63  1602.51  1622.90  1656.27  1668.53
                             1698.71  1716.21  1727.20  1744.77  1816.49
                             1891.42  1898.15  1934.34  1982.89  2012.15
                             2045.38  2150.30  2177.66  2180.28  2219.14
                             2395.09  2413.94  2423.11  2424.28  2645.40
                             2659.28  2726.65  4613.01  4628.79  4629.37
                             4641.44  4648.01  4653.12  4665.12  4687.94
                             5493.65

 Zero-point correction=                           0.213722 (Hartree/Particle)
 Thermal correction to Energy=                    0.228927
 Thermal correction to Enthalpy=                  0.229871
 Thermal correction to Gibbs Free Energy=         0.169906
 Sum of electronic and zero-point Energies=           -932.500875
 Sum of electronic and thermal Energies=              -932.485671
 Sum of electronic and thermal Enthalpies=            -932.484727
 Sum of electronic and thermal Free Energies=         -932.544691

                     E (Thermal)             CV                S
                      KCal/Mol        Cal/Mol-Kelvin    Cal/Mol-Kelvin
 Total                  143.654             59.188            126.207
 Electronic               0.000              0.000              0.000
 Translational            0.889              2.981             42.646
 Rotational               0.889              2.981             33.800
 Vibrational            141.876             53.227             49.761
 Vibration     1          0.594              1.982              5.511
 Vibration     2          0.594              1.981              5.191
 Vibration     3          0.596              1.976              4.677
 Vibration     4          0.601              1.960              3.796
 Vibration     5          0.612              1.923              2.941
 Vibration     6          0.615              1.914              2.814
 Vibration     7          0.624              1.884              2.477
 Vibration     8          0.628              1.871              2.366
 Vibration     9          0.642              1.828              2.057
 Vibration    10          0.665              1.755              1.697
 Vibration    11          0.668              1.747              1.665
 Vibration    12          0.683              1.700              1.500
 Vibration    13          0.740              1.539              1.091
 Vibration    14          0.744              1.529              1.070
 Vibration    15          0.767              1.467              0.957
 Vibration    16          0.786              1.419              0.881
 Vibration    17          0.796              1.393              0.841
 Vibration    18          0.830              1.309              0.728
 Vibration    19          0.875              1.206              0.610
 Vibration    20          0.892              1.168              0.572
 Vibration    21          0.898              1.155              0.559
 Vibration    22          0.937              1.073              0.484
 Vibration    23          0.970              1.008              0.431

 Optimization completed.
    -- Stationary point found.
 Normal termination of Gaussian 16 at Fri May 12 04:02:11 2023.
