 Gaussian 16, Revision C.01,
 Gaussian 16:  ES64L-G16RevC.01  3-Jul-2019

 ------------------------------------
 # opt freq M062x/aug-cc-pvtz pop=nbo
 ------------------------------------

 -----------------
 CYH-191-A_eq00002
 -----------------
 Symbolic Z-matrix:
 Charge =  0 Multiplicity = 1

 SCF Done:  E(RM062X) =  -436.856151528     A.U. after   13 cycles
 SCF Done:  E(RM062X) =  -436.856701054     A.U. after   10 cycles
 SCF Done:  E(RM062X) =  -436.856734014     A.U. after    9 cycles
 SCF Done:  E(RM062X) =  -436.856737119     A.U. after    9 cycles
 SCF Done:  E(RM062X) =  -436.856735418     A.U. after    9 cycles
 SCF Done:  E(RM062X) =  -436.856735467     A.U. after    9 cycles
 SCF Done:  E(RM062X) =  -436.856737306     A.U. after    9 cycles
 Optimization completed.
    -- Stationary point found.
 Normal termination of Gaussian 16 at Thu Apr 27 11:26:48 2023.

 ----------------------------------------------------------------------
 #N Geom=AllCheck Guess=TCheck SCRF=Check GenChk RM062X/Aug-CC-pVTZ Fre
 q
 ----------------------------------------------------------------------

 Structure from the checkpoint file:  "CYH-191-A_eq00002.chk"
 -----------------
 CYH-191-A_eq00002
 -----------------
 Charge =  0 Multiplicity = 1

                         Standard orientation:
 ---------------------------------------------------------------------
 Center     Atomic      Atomic             Coordinates (Angstroms)
 Number     Number       Type             X           Y           Z
 ---------------------------------------------------------------------
      1          6           0        0.205588    0.030277   -0.000095
      2          6           0       -0.531030    1.205156    0.000001
      3          6           0       -1.913977    1.111114    0.000083
      4          7           0       -2.570393   -0.046891    0.000068
      5          6           0       -1.851209   -1.165061   -0.000027
      6          6           0       -0.463303   -1.184468   -0.000103
      7          6           0        1.693899    0.123074   -0.000214
      8          8           0        2.307970    1.153231   -0.000016
      9          8           0        2.290645   -1.080968    0.000186
     10          1           0       -0.026993    2.160797    0.000003
     11          1           0       -2.523269    2.006472    0.000164
     12          1           0       -2.409155   -2.093430   -0.000041
     13          1           0        0.078725   -2.118157   -0.000172
     14          1           0        3.244713   -0.926100    0.000340
 ---------------------------------------------------------------------

 SCF Done:  E(RM062X) =  -436.856737306     A.U. after    1 cycles

 The electronic state is 1-A.
 Alpha  occ. eigenvalues --  -19.69161 -19.63620 -14.76479 -10.69817 -10.59102
 Alpha  occ. eigenvalues --  -10.59036 -10.58687 -10.56999 -10.56766  -1.26034
 Alpha  occ. eigenvalues --   -1.16415  -1.07393  -0.94043  -0.87970  -0.79032
 Alpha  occ. eigenvalues --   -0.73828  -0.70003  -0.63661  -0.60359  -0.56573
 Alpha  occ. eigenvalues --   -0.56122  -0.55782  -0.54421  -0.51441  -0.49038
 Alpha  occ. eigenvalues --   -0.48922  -0.44032  -0.42193  -0.38306  -0.36573
 Alpha  occ. eigenvalues --   -0.34058  -0.33555
 Alpha virt. eigenvalues --   -0.04590  -0.01085  -0.00123   0.00293   0.00690
 Alpha virt. eigenvalues --    0.02436   0.02726   0.02805   0.04027   0.04766
 Alpha virt. eigenvalues --    0.05787   0.06090   0.06613   0.07230   0.07689

 Mulliken charges:
               1
     1  C    1.664341
     2  C   -0.632632
     3  C   -0.406548
     4  N   -0.649660
     5  C   -0.508927
     6  C   -0.358789
     7  C    0.409168
     8  O   -0.887528
     9  O   -0.508805
    10  H    0.165073
    11  H    0.625625
    12  H    0.587193
    13  H    0.207469
    14  H    0.294020
 Sum of Mulliken charges =   0.00000

 Dipole moment (field-independent basis, Debye):
    X=              1.1218    Y=             -1.3882    Z=             -0.0002  Tot=              1.7848
 Quadrupole moment (field-independent basis, Debye-Ang):
   XX=            -54.0102   YY=            -47.8378   ZZ=            -52.8339
   XY=             -5.8029   XZ=              0.0007   YZ=              0.0004

  Exact polarizability:     104.327       1.000      91.940      -0.001       0.001      48.375
 Approx polarizability:     123.571       2.994     125.935      -0.001       0.002      64.566

 Summary of Natural Population Analysis:

                                       Natural Population
                Natural  -----------------------------------------------
    Atom  No    Charge         Core      Valence    Rydberg      Total
 -----------------------------------------------------------------------
      C    1   -0.14071      1.99900     4.11370    0.02801     6.14071
      C    2   -0.20252      1.99918     4.18708    0.01626     6.20252
      C    3    0.04358      1.99932     3.93305    0.02405     5.95642
      N    4   -0.40945      1.99952     5.37550    0.03443     7.40945
      C    5    0.04390      1.99932     3.93250    0.02427     5.95610
      C    6   -0.21203      1.99918     4.19671    0.01613     6.21203
      C    7    0.80159      1.99939     3.16604    0.03298     5.19841
      O    8   -0.58778      1.99977     6.55608    0.03193     8.58778
      O    9   -0.69597      1.99978     6.67101    0.02517     8.69597
      H   10    0.23861      0.00000     0.75843    0.00296     0.76139
      H   11    0.19350      0.00000     0.80381    0.00269     0.80650
      H   12    0.19273      0.00000     0.80454    0.00273     0.80727
      H   13    0.23344      0.00000     0.76355    0.00301     0.76656
      H   14    0.50109      0.00000     0.49567    0.00324     0.49891
 =======================================================================
   * Total *    0.00000     17.99447    45.75766    0.24786    64.00000

                      1                      2                      3
                      A                      A                      A
 Frequencies --     62.4992               160.5412               216.7970
 Red. masses --      6.7717                 6.2625                 5.9475
 Frc consts  --      0.0156                 0.0951                 0.1647
 IR Inten    --      1.1750                 0.8767                 1.6069

                      4                      5                      6
                      A                      A                      A
 Frequencies --    381.4465               389.7070               452.3232
 Red. masses --      8.9167                 2.5639                 3.5665
 Frc consts  --      0.7644                 0.2294                 0.4299
 IR Inten    --      2.7830                 0.1288                27.4650

                      7                      8                      9
                      A                      A                      A
 Frequencies --    501.0780               599.8771               643.5850
 Red. masses --      7.2020                 1.2335                 5.0548
 Frc consts  --      1.0654                 0.2615                 1.2336
 IR Inten    --      6.7722                56.0418                70.7473

                     10                     11                     12
                      A                      A                      A
 Frequencies --    680.7550               739.7475               788.7594
 Red. masses --      6.9144                 3.5212                 2.2565
 Frc consts  --      1.8879                 1.1353                 0.8271
 IR Inten    --      1.0399                60.7930                40.1202

                     13                     14                     15
                      A                      A                      A
 Frequencies --    794.5757               888.1443               916.0867
 Red. masses --      4.6388                 2.0523                 1.2565
 Frc consts  --      1.7255                 0.9538                 0.6213
 IR Inten    --      3.9894                 4.9850                 0.3339

                     16                     17                     18
                      A                      A                      A
 Frequencies --   1017.7134              1022.0601              1036.4854
 Red. masses --      1.3796                 7.4088                 1.4615
 Frc consts  --      0.8419                 4.5599                 0.9251
 IR Inten    --      0.3026                 3.7234                 0.0166

                     19                     20                     21
                      A                      A                      A
 Frequencies --   1098.9385              1110.2669              1148.0412
 Red. masses --      1.7800                 1.5122                 4.5074
 Frc consts  --      1.2665                 1.0982                 3.5002
 IR Inten    --     14.3597                 0.4645                96.0797

                     22                     23                     24
                      A                      A                      A
 Frequencies --   1216.1960              1249.8106              1266.3009
 Red. masses --      1.8103                 1.2933                 7.9980
 Frc consts  --      1.5777                 1.1902                 7.5562
 IR Inten    --    193.7222                 9.1129                 6.0304

                     25                     26                     27
                      A                      A                      A
 Frequencies --   1355.8304              1397.0119              1455.1349
 Red. masses --      1.3592                 2.9394                 2.1527
 Frc consts  --      1.4722                 3.3799                 2.6856
 IR Inten    --      2.4679               159.5077                40.3983

                     28                     29                     30
                      A                      A                      A
 Frequencies --   1544.4229              1647.7247              1672.4875
 Red. masses --      2.4124                 8.3956                 5.9606
 Frc consts  --      3.3902                13.4298                 9.8235
 IR Inten    --      6.2610                26.1356                 6.2711

                     31                     32                     33
                      A                      A                      A
 Frequencies --   1859.5682              3190.9208              3194.6558
 Red. masses --     10.6659                 1.0896                 1.0923
 Frc consts  --     21.7306                 6.5365                 6.5679
 IR Inten    --    343.9081                18.9533                 3.9896

                     34                     35                     36
                      A                      A                      A
 Frequencies --   3236.4779              3243.7578              3812.8951
 Red. masses --      1.0943                 1.0940                 1.0646
 Frc consts  --      6.7533                 6.7820                 9.1192
 IR Inten    --      2.0573                 1.0866               129.8287

 - Thermochemistry -
 -------------------
 Temperature   298.150 Kelvin.  Pressure   1.00000 Atm.
 Atom     1 has atomic number  6 and mass  12.00000

 Molecular mass:   123.03203 amu.
 Principal axes and moments of inertia in atomic units:
                           1         2         3
     Eigenvalues --   443.082561466.010631909.09317
           X            0.99994  -0.01121   0.00000
           Y            0.01121   0.99994   0.00000
           Z            0.00000   0.00000   1.00000
 This molecule is an asymmetric top.
 Rotational symmetry number  1.
 Warning -- assumption of classical behavior for rotation
           may cause significant error
 Rotational temperatures (Kelvin)      0.19548     0.05908     0.04537
 Rotational constants (GHZ):           4.07315     1.23106     0.94534
 Zero-point vibrational energy     275097.0 (Joules/Mol)
                                   65.74976 (Kcal/Mol)
 Warning -- explicit consideration of   8 degrees of freedom as
           vibrations may cause significant error
 Vibrational temperatures:     89.92   230.98   311.92   548.82   560.70
          (Kelvin)            650.79   720.94   863.09   925.98   979.45
                             1064.33  1134.85  1143.22  1277.84  1318.04
                             1464.26  1470.52  1491.27  1581.13  1597.43
                             1651.78  1749.83  1798.20  1821.92  1950.74
                             2009.99  2093.61  2222.08  2370.71  2406.34
                             2675.50  4591.02  4596.40  4656.57  4667.04
                             5485.91

 Zero-point correction=                           0.104779 (Hartree/Particle)
 Thermal correction to Energy=                    0.111742
 Thermal correction to Enthalpy=                  0.112687
 Thermal correction to Gibbs Free Energy=         0.072745
 Sum of electronic and zero-point Energies=           -436.751958
 Sum of electronic and thermal Energies=              -436.744995
 Sum of electronic and thermal Enthalpies=            -436.744051
 Sum of electronic and thermal Free Energies=         -436.783993

                     E (Thermal)             CV                S
                      KCal/Mol        Cal/Mol-Kelvin    Cal/Mol-Kelvin
 Total                   70.119             26.030             84.065
 Electronic               0.000              0.000              0.000
 Translational            0.889              2.981             40.336
 Rotational               0.889              2.981             28.607
 Vibrational             68.342             20.068             15.122
 Vibration     1          0.597              1.972              4.377
 Vibration     2          0.622              1.891              2.543
 Vibration     3          0.646              1.815              1.986
 Vibration     4          0.751              1.510              1.033
 Vibration     5          0.758              1.492              1.001
 Vibration     6          0.811              1.356              0.789
 Vibration     7          0.856              1.248              0.655
 Vibration     8          0.958              1.032              0.450

 Optimization completed.
    -- Stationary point found.
 Normal termination of Gaussian 16 at Thu Apr 27 11:49:27 2023.
