 Gaussian 16, Revision C.01,
 Gaussian 16:  ES64L-G16RevC.01  3-Jul-2019

 ------------------------------------
 # opt freq M062x/aug-cc-pvtz pop=nbo
 ------------------------------------

 -----------------
 CYH-186-A_eq00002
 -----------------
 Symbolic Z-matrix:
 Charge =  0 Multiplicity = 1

 SCF Done:  E(RM062X) =  -741.590341352     A.U. after   14 cycles
 SCF Done:  E(RM062X) =  -741.590999847     A.U. after   11 cycles
 SCF Done:  E(RM062X) =  -741.591048870     A.U. after    9 cycles
 SCF Done:  E(RM062X) =  -741.591052538     A.U. after    9 cycles
 SCF Done:  E(RM062X) =  -741.591053897     A.U. after    8 cycles
 Optimization completed.
    -- Stationary point found.
 Normal termination of Gaussian 16 at Thu Apr 27 11:18:32 2023.

 ----------------------------------------------------------------------
 #N Geom=AllCheck Guess=TCheck SCRF=Check GenChk RM062X/Aug-CC-pVTZ Fre
 q
 ----------------------------------------------------------------------

 Structure from the checkpoint file:  "CYH-186-A_eq00002.chk"
 -----------------
 CYH-186-A_eq00002
 -----------------
 Charge =  0 Multiplicity = 1

                         Standard orientation:
 ---------------------------------------------------------------------
 Center     Atomic      Atomic             Coordinates (Angstroms)
 Number     Number       Type             X           Y           Z
 ---------------------------------------------------------------------
      1          6           0        2.262583   -0.236782   -0.000096
      2          6           0        1.995498    1.102157    0.000044
      3          6           0        0.607387    1.368701    0.000061
      4          6           0       -0.142384    0.227127   -0.000097
      5         16           0        0.842466   -1.182771    0.000065
      6          6           0       -1.608610    0.182715   -0.000271
      7          8           0       -2.320473    1.149997    0.000082
      8          8           0       -2.086944   -1.077257    0.000029
      9          1           0        3.227140   -0.716741   -0.000166
     10          1           0        2.761288    1.861979    0.000069
     11          1           0        0.155922    2.349338    0.000091
     12          1           0       -3.051308   -1.015673    0.000222
 ---------------------------------------------------------------------

 SCF Done:  E(RM062X) =  -741.591053897     A.U. after    1 cycles

 The electronic state is 1-A.
 Alpha  occ. eigenvalues --  -89.97862 -19.68171 -19.62373 -10.69132 -10.58722
 Alpha  occ. eigenvalues --  -10.58637 -10.56441 -10.55990  -8.31370  -6.23287
 Alpha  occ. eigenvalues --   -6.23076  -6.22955  -1.24909  -1.15256  -1.00664
 Alpha  occ. eigenvalues --   -0.86183  -0.84589  -0.75316  -0.66752  -0.63410
 Alpha  occ. eigenvalues --   -0.61211  -0.58500  -0.55180  -0.53724  -0.48865
 Alpha  occ. eigenvalues --   -0.47527  -0.46768  -0.46366  -0.41828  -0.41105
 Alpha  occ. eigenvalues --   -0.37096  -0.32278  -0.31302
 Alpha virt. eigenvalues --   -0.03242  -0.00676  -0.00024   0.00971   0.02220
 Alpha virt. eigenvalues --    0.03212   0.03519   0.04022   0.04589   0.05814
 Alpha virt. eigenvalues --    0.05886   0.06151   0.06703   0.07239   0.08023

 Mulliken charges:
               1
     1  C   -0.339425
     2  C   -0.336739
     3  C   -0.975256
     4  C    1.428051
     5  S    0.031071
     6  C    0.318514
     7  O   -0.855160
     8  O   -0.453878
     9  H    0.313693
    10  H    0.265032
    11  H    0.323054
    12  H    0.281043
 Sum of Mulliken charges =   0.00000

 Dipole moment (field-independent basis, Debye):
    X=              1.7964    Y=             -0.9225    Z=             -0.0001  Tot=              2.0194
 Quadrupole moment (field-independent basis, Debye-Ang):
   XX=            -45.1823   YY=            -52.6541   ZZ=            -55.0361
   XY=              6.0672   XZ=             -0.0001   YZ=             -0.0006

  Exact polarizability:     108.002       0.466      90.660       0.000       0.001      51.375
 Approx polarizability:     132.304      -1.068     130.187      -0.002       0.002      69.630

 Summary of Natural Population Analysis:

                                       Natural Population
                Natural  -----------------------------------------------
    Atom  No    Charge         Core      Valence    Rydberg      Total
 -----------------------------------------------------------------------
      C    1   -0.38657      1.99925     4.36317    0.02415     6.38657
      C    2   -0.26329      1.99926     4.24602    0.01802     6.26329
      C    3   -0.18241      1.99915     4.16579    0.01747     6.18241
      C    4   -0.36190      1.99895     4.32813    0.03482     6.36190
      S    5    0.50596      9.99893     5.45540    0.03971    15.49404
      C    6    0.78622      1.99931     3.17991    0.03456     5.21378
      O    7   -0.59648      1.99977     6.56554    0.03117     8.59648
      O    8   -0.70020      1.99978     6.67488    0.02554     8.70020
      H    9    0.23314      0.00000     0.76356    0.00330     0.76686
      H   10    0.22586      0.00000     0.77123    0.00291     0.77414
      H   11    0.24044      0.00000     0.75641    0.00315     0.75956
      H   12    0.49921      0.00000     0.49745    0.00335     0.50079
 =======================================================================
   * Total *    0.00000     23.99439    41.76748    0.23813    66.00000

                      1                      2                      3
                      A                      A                      A
 Frequencies --     76.4246               176.3030               176.6116
 Red. masses --      9.6219                 5.0303                 7.0667
 Frc consts  --      0.0331                 0.0921                 0.1299
 IR Inten    --      1.7440                 1.6320                 0.9141

                      4                      5                      6
                      A                      A                      A
 Frequencies --    390.4499               462.0768               463.1661
 Red. masses --      9.0027                10.7781                 4.0560
 Frc consts  --      0.8086                 1.3559                 0.5126
 IR Inten    --      7.1608                 1.8119                14.6852

                      7                      8                      9
                      A                      A                      A
 Frequencies --    573.7331               596.5037               637.2033
 Red. masses --      2.0449                 1.5061                 6.1675
 Frc consts  --      0.3966                 0.3157                 1.4754
 IR Inten    --     25.8366                47.6215                38.5288

                     10                     11                     12
                      A                      A                      A
 Frequencies --    734.8727               751.1197               780.5882
 Red. masses --      5.1460                 1.1841                 6.1715
 Frc consts  --      1.6374                 0.3936                 2.2156
 IR Inten    --     24.7046                59.8010                 0.2987

                     13                     14                     15
                      A                      A                      A
 Frequencies --    782.2795               885.7862               902.6200
 Red. masses --      5.2491                 4.0602                 1.3896
 Frc consts  --      1.8926                 1.8769                 0.6671
 IR Inten    --     63.2679                16.8676                 1.0940

                     16                     17                     18
                      A                      A                      A
 Frequencies --    959.7578              1055.8234              1102.6916
 Red. masses --      1.4017                 1.4269                 1.2853
 Frc consts  --      0.7607                 0.9372                 0.9208
 IR Inten    --      0.8852                14.1285                 7.0595

                     19                     20                     21
                      A                      A                      A
 Frequencies --   1124.8814              1202.3136              1262.4834
 Red. masses --      5.0155                 1.9374                 1.5106
 Frc consts  --      3.7392                 1.6501                 1.4186
 IR Inten    --     61.5935               265.0228                38.6060

                     22                     23                     24
                      A                      A                      A
 Frequencies --   1373.5943              1415.4591              1476.2137
 Red. masses --      2.8500                 3.0839                 5.6196
 Frc consts  --      3.1682                 3.6404                 7.2153
 IR Inten    --     66.2696                78.5352                74.7221

                     25                     26                     27
                      A                      A                      A
 Frequencies --   1606.1169              1842.0439              3239.8193
 Red. masses --      6.1927                10.4268                 1.0895
 Frc consts  --      9.4121                20.8450                 6.7376
 IR Inten    --     55.2113               453.5742                 0.8191

                     28                     29                     30
                      A                      A                      A
 Frequencies --   3251.7474              3272.0377              3817.8100
 Red. masses --      1.0954                 1.0997                 1.0646
 Frc consts  --      6.8246                 6.9370                 9.1422
 IR Inten    --      1.6919                 0.7376               134.7193

 - Thermochemistry -
 -------------------
 Temperature   298.150 Kelvin.  Pressure   1.00000 Atm.
 Atom     1 has atomic number  6 and mass  12.00000

 Molecular mass:   127.99320 amu.
 Principal axes and moments of inertia in atomic units:
                           1         2         3
     Eigenvalues --   477.018431253.852381730.87080
           X            0.99958   0.02885   0.00000
           Y           -0.02885   0.99958   0.00000
           Z            0.00000   0.00000   1.00000
 This molecule is an asymmetric top.
 Rotational symmetry number  1.
 Warning -- assumption of classical behavior for rotation
           may cause significant error
 Rotational temperatures (Kelvin)      0.18157     0.06908     0.05004
 Rotational constants (GHZ):           3.78338     1.43936     1.04268
 Zero-point vibrational energy     217675.7 (Joules/Mol)
                                   52.02574 (Kcal/Mol)
 Warning -- explicit consideration of   8 degrees of freedom as
           vibrations may cause significant error
 Vibrational temperatures:    109.96   253.66   254.10   561.77   664.83
          (Kelvin)            666.39   825.47   858.24   916.79  1057.32
                             1080.69  1123.09  1125.53  1274.45  1298.67
                             1380.88  1519.09  1586.53  1618.45  1729.86
                             1816.43  1976.30  2036.53  2123.94  2310.84
                             2650.29  4661.38  4678.54  4707.73  5492.98

 Zero-point correction=                           0.082908 (Hartree/Particle)
 Thermal correction to Energy=                    0.089668
 Thermal correction to Enthalpy=                  0.090612
 Thermal correction to Gibbs Free Energy=         0.051110
 Sum of electronic and zero-point Energies=           -741.508146
 Sum of electronic and thermal Energies=              -741.501386
 Sum of electronic and thermal Enthalpies=            -741.500442
 Sum of electronic and thermal Free Energies=         -741.539943

                     E (Thermal)             CV                S
                      KCal/Mol        Cal/Mol-Kelvin    Cal/Mol-Kelvin
 Total                   56.267             24.808             83.137
 Electronic               0.000              0.000              0.000
 Translational            0.889              2.981             40.454
 Rotational               0.889              2.981             28.428
 Vibrational             54.490             18.846             14.256
 Vibration     1          0.599              1.965              3.981
 Vibration     2          0.628              1.872              2.367
 Vibration     3          0.628              1.871              2.364
 Vibration     4          0.758              1.491              0.998
 Vibration     5          0.820              1.334              0.760
 Vibration     6          0.821              1.332              0.757
 Vibration     7          0.930              1.088              0.497
 Vibration     8          0.954              1.039              0.456

 Optimization completed.
    -- Stationary point found.
 Normal termination of Gaussian 16 at Thu Apr 27 11:31:24 2023.
