 Gaussian 16, Revision C.01,
 Gaussian 16:  ES64L-G16RevC.01  3-Jul-2019

 ------------------------------------
 # opt freq M062x/aug-cc-pvtz pop=nbo
 ------------------------------------

 -----------------
 CYH-183-A_eq00000
 -----------------
 Symbolic Z-matrix:
 Charge =  0 Multiplicity = 1

 SCF Done:  E(RM062X) =  -535.346693314     A.U. after   14 cycles
 SCF Done:  E(RM062X) =  -535.347171408     A.U. after   12 cycles
 SCF Done:  E(RM062X) =  -535.347268307     A.U. after   10 cycles
 SCF Done:  E(RM062X) =  -535.347278471     A.U. after    9 cycles
 SCF Done:  E(RM062X) =  -535.347279032     A.U. after    7 cycles
 Optimization completed.
    -- Stationary point found.
 Normal termination of Gaussian 16 at Thu Apr 27 11:41:24 2023.

 ----------------------------------------------------------------------
 #N Geom=AllCheck Guess=TCheck SCRF=Check GenChk RM062X/Aug-CC-pVTZ Fre
 q
 ----------------------------------------------------------------------

 Structure from the checkpoint file:  "CYH-183-A_eq00000.chk"
 -----------------
 CYH-183-A_eq00000
 -----------------
 Charge =  0 Multiplicity = 1

                         Standard orientation:
 ---------------------------------------------------------------------
 Center     Atomic      Atomic             Coordinates (Angstroms)
 Number     Number       Type             X           Y           Z
 ---------------------------------------------------------------------
      1          6           0        1.103162   -0.018365   -0.000059
      2          6           0        0.540336    1.259286   -0.000042
      3          6           0       -0.828121    1.413891   -0.000024
      4          6           0       -1.659003    0.290838   -0.000020
      5          6           0       -1.105208   -0.988493   -0.000035
      6          6           0        0.272942   -1.130227   -0.000052
      7          6           0        2.565050   -0.236307   -0.000088
      8          8           0       -2.985953    0.540323   -0.000009
      9          8           0        3.103714   -1.312133    0.000048
     10          8           0        3.271759    0.913018    0.000093
     11          6           0       -3.869157   -0.562408    0.000085
     12          1           0        1.184240    2.126739   -0.000046
     13          1           0       -1.286479    2.392459   -0.000013
     14          1           0       -1.731571   -1.866923   -0.000038
     15          1           0        0.723294   -2.113320   -0.000067
     16          1           0        4.204670    0.662821    0.000195
     17          1           0       -4.871605   -0.146447    0.000152
     18          1           0       -3.729428   -1.177166   -0.891391
     19          1           0       -3.729289   -1.177124    0.891567
 ---------------------------------------------------------------------

 SCF Done:  E(RM062X) =  -535.347279032     A.U. after    1 cycles

 The electronic state is 1-A.
 Alpha  occ. eigenvalues --  -19.67251 -19.67239 -19.61441 -10.67781 -10.62197
 Alpha  occ. eigenvalues --  -10.60220 -10.55974 -10.55962 -10.55630 -10.55364
 Alpha  occ. eigenvalues --  -10.54958  -1.23980  -1.21320  -1.14205  -0.97963
 Alpha  occ. eigenvalues --   -0.88217  -0.86477  -0.81574  -0.74584  -0.70890
 Alpha  occ. eigenvalues --   -0.67517  -0.63159  -0.60000  -0.58342  -0.56768
 Alpha  occ. eigenvalues --   -0.56429  -0.54079  -0.53375  -0.50597  -0.50102
 Alpha  occ. eigenvalues --   -0.49245  -0.46507  -0.45688  -0.44180  -0.41255
 Alpha  occ. eigenvalues --   -0.40403  -0.39750  -0.36087  -0.32602  -0.29428
 Alpha virt. eigenvalues --   -0.01557  -0.00928  -0.00113   0.00640   0.00736
 Alpha virt. eigenvalues --    0.01363   0.01475   0.02398   0.03426   0.03695
 Alpha virt. eigenvalues --    0.04028   0.04843   0.05765   0.05950   0.07170

 Mulliken charges:
               1
     1  C    1.809563
     2  C   -0.331146
     3  C   -0.723314
     4  C    1.295167
     5  C    0.025968
     6  C   -1.031488
     7  C    0.376532
     8  O   -0.870234
     9  O   -0.915095
    10  O   -0.539642
    11  C   -1.026376
    12  H    0.049637
    13  H    0.371597
    14  H    0.237532
    15  H   -0.054696
    16  H    0.294313
    17  H    0.310952
    18  H    0.360369
    19  H    0.360360
 Sum of Mulliken charges =   0.00000

 Dipole moment (field-independent basis, Debye):
    X=             -2.4655    Y=              0.4026    Z=              0.0000  Tot=              2.4982
 Quadrupole moment (field-independent basis, Debye-Ang):
   XX=            -54.1758   YY=            -63.4695   ZZ=            -66.1312
   XY=             11.0133   XZ=             -0.0003   YZ=              0.0002

  Exact polarizability:     154.673       0.345     105.965       0.000       0.000      63.844
 Approx polarizability:     168.410      -4.032     146.093       0.000       0.000      85.352

 Summary of Natural Population Analysis:

                                       Natural Population
                Natural  -----------------------------------------------
    Atom  No    Charge         Core      Valence    Rydberg      Total
 -----------------------------------------------------------------------
      C    1   -0.22517      1.99901     4.19785    0.02831     6.22517
      C    2   -0.12308      1.99888     4.10398    0.02022     6.12308
      C    3   -0.25935      1.99920     4.24074    0.01942     6.25935
      C    4    0.34329      1.99893     3.63156    0.02621     5.65671
      C    5   -0.30519      1.99915     4.29058    0.01546     6.30519
      C    6   -0.12623      1.99922     4.10663    0.02038     6.12623
      C    7    0.80596      1.99938     3.16081    0.03385     5.19404
      O    8   -0.51409      1.99974     6.48682    0.02753     8.51409
      O    9   -0.61237      1.99977     6.58097    0.03163     8.61237
      O   10   -0.70430      1.99979     6.67957    0.02494     8.70430
      C   11   -0.21812      1.99936     4.20555    0.01321     6.21812
      H   12    0.22623      0.00000     0.77052    0.00325     0.77377
      H   13    0.22269      0.00000     0.77295    0.00436     0.77731
      H   14    0.21892      0.00000     0.77806    0.00302     0.78108
      H   15    0.23253      0.00000     0.76443    0.00304     0.76747
      H   16    0.49718      0.00000     0.49943    0.00340     0.50282
      H   17    0.19354      0.00000     0.80222    0.00424     0.80646
      H   18    0.17379      0.00000     0.82367    0.00254     0.82621
      H   19    0.17379      0.00000     0.82367    0.00254     0.82621
 =======================================================================
   * Total *    0.00001     21.99242    57.72002    0.28756    79.99999

                      1                      2                      3
                      A                      A                      A
 Frequencies --     66.5915                82.3423               136.3754
 Red. masses --      5.4254                 4.5912                 4.4581
 Frc consts  --      0.0142                 0.0183                 0.0489
 IR Inten    --      3.2783                 0.0347                 2.3359

                      4                      5                      6
                      A                      A                      A
 Frequencies --    173.8112               254.7914               279.8614
 Red. masses --      5.5029                 1.3941                 3.7625
 Frc consts  --      0.0979                 0.0533                 0.1736
 IR Inten    --      2.9242                 0.7696                 0.9069

                      7                      8                      9
                      A                      A                      A
 Frequencies --    314.7907               345.6518               428.6395
 Red. masses --      2.4581                 7.9656                 2.9501
 Frc consts  --      0.1435                 0.5607                 0.3194
 IR Inten    --      3.2854                 1.1254                 0.4006

                     10                     11                     12
                      A                      A                      A
 Frequencies --    475.4215               516.6043               533.0805
 Red. masses --      5.3828                 2.4730                 4.8033
 Frc consts  --      0.7168                 0.3889                 0.8042
 IR Inten    --      5.4523                32.0156                 2.3172

                     13                     14                     15
                      A                      A                      A
 Frequencies --    588.1550               606.8188               645.6801
 Red. masses --      1.2163                 5.2940                 7.0307
 Frc consts  --      0.2479                 1.1486                 1.7270
 IR Inten    --     49.9607                68.7612                 6.2152

                     16                     17                     18
                      A                      A                      A
 Frequencies --    718.4396               740.8654               801.7230
 Red. masses --      3.1924                 4.0906                 4.5882
 Frc consts  --      0.9708                 1.3229                 1.7376
 IR Inten    --     29.8980                13.8686                63.0683

                     19                     20                     21
                      A                      A                      A
 Frequencies --    847.1761               853.0457               886.7707
 Red. masses --      5.4664                 1.2601                 1.9257
 Frc consts  --      2.3115                 0.5402                 0.8922
 IR Inten    --     16.2823                 0.0869                26.5485

                     22                     23                     24
                      A                      A                      A
 Frequencies --   1003.1041              1013.6160              1032.0566
 Red. masses --      1.3652                 1.3485                 2.7884
 Frc consts  --      0.8094                 0.8163                 1.7499
 IR Inten    --      0.2228                 0.0706                 2.0022

                     25                     26                     27
                      A                      A                      A
 Frequencies --   1105.9376              1134.7987              1143.5953
 Red. masses --      6.1751                 2.0079                 1.8770
 Frc consts  --      4.4500                 1.5235                 1.4463
 IR Inten    --     57.7022                85.7608                35.1547

                     28                     29                     30
                      A                      A                      A
 Frequencies --   1185.6495              1189.4437              1217.0730
 Red. masses --      1.2783                 1.2351                 1.4135
 Frc consts  --      1.0588                 1.0295                 1.2336
 IR Inten    --      1.1876               244.7049                11.8362

                     31                     32                     33
                      A                      A                      A
 Frequencies --   1225.4479              1315.3239              1331.8110
 Red. masses --      1.5675                 5.3261                 1.3435
 Frc consts  --      1.3869                 5.4291                 1.4040
 IR Inten    --    115.9380               165.9988                 9.0239

                     34                     35                     36
                      A                      A                      A
 Frequencies --   1353.4435              1396.6323              1467.7002
 Red. masses --      4.7782                 3.1285                 3.2808
 Frc consts  --      5.1570                 3.5955                 4.1639
 IR Inten    --    108.0052               301.0973                 1.8244

                     37                     38                     39
                      A                      A                      A
 Frequencies --   1486.1577              1509.6653              1516.4682
 Red. masses --      1.2212                 1.0434                 1.0589
 Frc consts  --      1.5892                 1.4010                 1.4347
 IR Inten    --      4.0200                 8.8848                28.7797

                     40                     41                     42
                      A                      A                      A
 Frequencies --   1567.2010              1649.2497              1680.7280
 Red. masses --      2.8926                 7.3089                 6.2191
 Frc consts  --      4.1859                11.7131                10.3507
 IR Inten    --     80.4888                 8.1343               224.1377

                     43                     44                     45
                      A                      A                      A
 Frequencies --   1838.6921              3047.3556              3110.5127
 Red. masses --     10.1919                 1.0345                 1.1061
 Frc consts  --     20.3012                 5.6604                 6.3055
 IR Inten    --    425.3788                37.6643                22.8606

                     46                     47                     48
                      A                      A                      A
 Frequencies --   3174.4664              3219.5882              3221.6138
 Red. masses --      1.1006                 1.0898                 1.0893
 Frc consts  --      6.5349                 6.6555                 6.6612
 IR Inten    --     14.2173                 0.1316                 0.6353

                     49                     50                     51
                      A                      A                      A
 Frequencies --   3235.8236              3244.5028              3822.9456
 Red. masses --      1.0954                 1.0927                 1.0646
 Frc consts  --      6.7575                 6.7773                 9.1669
 IR Inten    --      0.8376                 3.6840               129.7870

 - Thermochemistry -
 -------------------
 Temperature   298.150 Kelvin.  Pressure   1.00000 Atm.
 Atom     1 has atomic number  6 and mass  12.00000

 Molecular mass:   152.04734 amu.
 Principal axes and moments of inertia in atomic units:
                           1         2         3
     Eigenvalues --   514.392973139.375873642.32781
           X            0.99983   0.01821   0.00000
           Y           -0.01821   0.99983   0.00000
           Z            0.00000   0.00000   1.00000
 This molecule is an asymmetric top.
 Rotational symmetry number  1.
 Warning -- assumption of classical behavior for rotation
           may cause significant error
 Rotational temperatures (Kelvin)      0.16838     0.02759     0.02378
 Rotational constants (GHZ):           3.50849     0.57487     0.49549
 Zero-point vibrational energy     393196.0 (Joules/Mol)
                                   93.97610 (Kcal/Mol)
 Warning -- explicit consideration of  14 degrees of freedom as
           vibrations may cause significant error
 Vibrational temperatures:     95.81   118.47   196.21   250.08   366.59
          (Kelvin)            402.66   452.91   497.32   616.72   684.03
                              743.28   766.98   846.22   873.08   928.99
                             1033.67  1065.94  1153.50  1218.90  1227.34
                             1275.87  1443.24  1458.37  1484.90  1591.20
                             1632.72  1645.38  1705.89  1711.34  1751.10
                             1763.15  1892.46  1916.18  1947.30  2009.44
                             2111.69  2138.25  2172.07  2181.86  2254.85
                             2372.90  2418.19  2645.47  4384.47  4475.33
                             4567.35  4632.27  4635.18  4655.63  4668.12
                             5500.37

 Zero-point correction=                           0.149760 (Hartree/Particle)
 Thermal correction to Energy=                    0.159296
 Thermal correction to Enthalpy=                  0.160240
 Thermal correction to Gibbs Free Energy=         0.114497
 Sum of electronic and zero-point Energies=           -535.197519
 Sum of electronic and thermal Energies=              -535.187983
 Sum of electronic and thermal Enthalpies=            -535.187039
 Sum of electronic and thermal Free Energies=         -535.232782

                     E (Thermal)             CV                S
                      KCal/Mol        Cal/Mol-Kelvin    Cal/Mol-Kelvin
 Total                   99.960             35.986             96.273
 Electronic               0.000              0.000              0.000
 Translational            0.889              2.981             40.967
 Rotational               0.889              2.981             30.154
 Vibrational             98.182             30.024             25.152
 Vibration     1          0.598              1.970              4.252
 Vibration     2          0.600              1.961              3.834
 Vibration     3          0.614              1.917              2.854
 Vibration     4          0.627              1.875              2.394
 Vibration     5          0.665              1.755              1.697
 Vibration     6          0.680              1.711              1.535
 Vibration     7          0.702              1.645              1.337
 Vibration     8          0.724              1.584              1.186
 Vibration     9          0.790              1.408              0.863
 Vibration    10          0.832              1.305              0.723
 Vibration    11          0.872              1.213              0.618
 Vibration    12          0.888              1.177              0.580
 Vibration    13          0.945              1.057              0.470
 Vibration    14          0.966              1.017              0.438

 Optimization completed.
    -- Stationary point found.
 Normal termination of Gaussian 16 at Thu Apr 27 12:37:22 2023.
