 Gaussian 16, Revision C.01,
 Gaussian 16:  ES64L-G16RevC.01  3-Jul-2019

 ------------------------------------
 # opt freq M062x/aug-cc-pvtz pop=nbo
 ------------------------------------

 -----------------
 CYH-205-A_eq00000
 -----------------
 Symbolic Z-matrix:
 Charge =  0 Multiplicity = 1

 SCF Done:  E(RM062X) =  -513.064530187     A.U. after   14 cycles
 SCF Done:  E(RM062X) =  -513.065135165     A.U. after   11 cycles
 SCF Done:  E(RM062X) =  -513.065171351     A.U. after   10 cycles
 SCF Done:  E(RM062X) =  -513.065174629     A.U. after    9 cycles
 Optimization completed.
    -- Stationary point found.
 Normal termination of Gaussian 16 at Thu Apr 27 11:54:46 2023.

 ----------------------------------------------------------------------
 #N Geom=AllCheck Guess=TCheck SCRF=Check GenChk RM062X/Aug-CC-pVTZ Fre
 q
 ----------------------------------------------------------------------

 Structure from the checkpoint file:  "CYH-205-A_eq00000.chk"
 -----------------
 CYH-205-A_eq00000
 -----------------
 Charge =  0 Multiplicity = 1

                         Standard orientation:
 ---------------------------------------------------------------------
 Center     Atomic      Atomic             Coordinates (Angstroms)
 Number     Number       Type             X           Y           Z
 ---------------------------------------------------------------------
      1          6           0        0.952019    0.032572    0.000006
      2          6           0        0.279689   -1.184759    0.000003
      3          6           0       -1.103664   -1.205625    0.000000
      4          6           0       -1.808583   -0.003977    0.000000
      5          6           0       -1.135749    1.217389    0.000003
      6          6           0        0.245842    1.230723    0.000005
      7          6           0        2.439891    0.105666    0.000010
      8          8           0        3.067355    1.128468   -0.000010
      9          8           0        3.023412   -1.104801   -0.000003
     10          6           0       -3.245071   -0.024324   -0.000003
     11          7           0       -4.392175   -0.040741   -0.000005
     12          1           0        0.839747   -2.108011    0.000004
     13          1           0       -1.642671   -2.141895   -0.000002
     14          1           0       -1.699574    2.138924    0.000002
     15          1           0        0.796265    2.160836    0.000007
     16          1           0        3.979071   -0.960009   -0.000015
 ---------------------------------------------------------------------

 SCF Done:  E(RM062X) =  -513.065174629     A.U. after    1 cycles

 The electronic state is 1-A.
 Alpha  occ. eigenvalues --  -19.69560 -19.63962 -14.76510 -10.70242 -10.61365
 Alpha  occ. eigenvalues --  -10.59258 -10.58974 -10.58787 -10.58722 -10.58469
 Alpha  occ. eigenvalues --  -10.58231  -1.26442  -1.16788  -1.03853  -1.00940
 Alpha  occ. eigenvalues --   -0.91652  -0.89029  -0.79994  -0.74106  -0.71405
 Alpha  occ. eigenvalues --   -0.66257  -0.62416  -0.60409  -0.56682  -0.56560
 Alpha  occ. eigenvalues --   -0.55202  -0.53198  -0.51585  -0.49870  -0.47974
 Alpha  occ. eigenvalues --   -0.45155  -0.45089  -0.43844  -0.42247  -0.41633
 Alpha  occ. eigenvalues --   -0.38454  -0.35102  -0.34280
 Alpha virt. eigenvalues --   -0.06342  -0.01729  -0.01477  -0.00169   0.00266
 Alpha virt. eigenvalues --    0.02100   0.02220   0.02483   0.03218   0.03478
 Alpha virt. eigenvalues --    0.05147   0.05278   0.05424   0.05484   0.06093

 Mulliken charges:
               1
     1  C    1.960321
     2  C   -0.437325
     3  C   -0.901126
     4  C    1.913438
     5  C   -0.897315
     6  C   -0.771889
     7  C    0.465200
     8  O   -0.899296
     9  O   -0.530023
    10  C    0.674224
    11  N   -0.948013
    12  H    0.156420
    13  H   -0.105641
    14  H   -0.128452
    15  H    0.142267
    16  H    0.307212
 Sum of Mulliken charges =   0.00000

 Dipole moment (field-independent basis, Debye):
    X=              3.3066    Y=             -1.3727    Z=              0.0000  Tot=              3.5802
 Quadrupole moment (field-independent basis, Debye-Ang):
   XX=            -80.9316   YY=            -57.9592   ZZ=            -63.9342
   XY=             -6.9782   XZ=              0.0000   YZ=              0.0001

  Exact polarizability:     159.393       1.644     100.525       0.000       0.000      58.196
 Approx polarizability:     183.481       3.971     140.167       0.000       0.000      78.442

 Summary of Natural Population Analysis:

                                       Natural Population
                Natural  -----------------------------------------------
    Atom  No    Charge         Core      Valence    Rydberg      Total
 -----------------------------------------------------------------------
      C    1   -0.15333      1.99900     4.12851    0.02583     6.15333
      C    2   -0.16382      1.99920     4.14536    0.01926     6.16382
      C    3   -0.15523      1.99919     4.14076    0.01528     6.15523
      C    4   -0.15300      1.99893     4.13347    0.02060     6.15300
      C    5   -0.15586      1.99920     4.14130    0.01536     6.15586
      C    6   -0.15159      1.99920     4.13590    0.01649     6.15159
      C    7    0.80206      1.99940     3.16568    0.03286     5.19794
      O    8   -0.59045      1.99977     6.55874    0.03195     8.59045
      O    9   -0.69714      1.99978     6.67246    0.02490     8.69714
      C   10    0.26601      1.99925     3.69962    0.03512     5.73399
      N   11   -0.28480      1.99961     5.25353    0.03166     7.28480
      H   12    0.23630      0.00000     0.76096    0.00273     0.76370
      H   13    0.22810      0.00000     0.76951    0.00239     0.77190
      H   14    0.22867      0.00000     0.76897    0.00235     0.77133
      H   15    0.24191      0.00000     0.75540    0.00269     0.75809
      H   16    0.50217      0.00000     0.49462    0.00321     0.49783
 =======================================================================
   * Total *    0.00000     21.99252    53.72481    0.28267    76.00000

                      1                      2                      3
                      A                      A                      A
 Frequencies --     63.3867                80.1652               132.5168
 Red. masses --      6.8994                 8.8893                 9.8277
 Frc consts  --      0.0163                 0.0337                 0.1017
 IR Inten    --      0.9612                 3.3382                 6.0954

                      4                      5                      6
                      A                      A                      A
 Frequencies --    216.1477               233.8487               330.0694
 Red. masses --      6.8726                 6.0490                11.0612
 Frc consts  --      0.1892                 0.1949                 0.7100
 IR Inten    --      3.6273                 3.2441                 1.6200

                      7                      8                      9
                      A                      A                      A
 Frequencies --    406.2791               413.0265               491.5003
 Red. masses --      2.8575                 4.5397                 7.9426
 Frc consts  --      0.2779                 0.4563                 1.1305
 IR Inten    --      0.3480                 2.6893                 5.1679

                     10                     11                     12
                      A                      A                      A
 Frequencies --    560.4422               562.7114               580.7410
 Red. masses --      2.9568                 6.9438                 6.8395
 Frc consts  --      0.5472                 1.2954                 1.3591
 IR Inten    --     52.7938                24.2174                 1.7836

                     13                     14                     15
                      A                      A                      A
 Frequencies --    599.5405               657.5118               713.5423
 Red. masses --      1.3426                 7.5048                 4.2370
 Frc consts  --      0.2843                 1.9116                 1.2710
 IR Inten    --     30.1746                 1.4346                42.8716

                     16                     17                     18
                      A                      A                      A
 Frequencies --    714.2724               797.5898               831.5362
 Red. masses --      3.3515                 3.7472                 5.7720
 Frc consts  --      1.0074                 1.4045                 2.3515
 IR Inten    --     44.3656                54.2445                10.5193

                     19                     20                     21
                      A                      A                      A
 Frequencies --    878.1078               901.0783              1012.3170
 Red. masses --      1.2546                 1.9056                 1.3610
 Frc consts  --      0.5700                 0.9116                 0.8218
 IR Inten    --      0.1777                17.5813                 0.0042

                     22                     23                     24
                      A                      A                      A
 Frequencies --   1022.5422              1043.3900              1130.1786
 Red. masses --      1.3736                 2.9655                 1.5830
 Frc consts  --      0.8462                 1.9022                 1.1913
 IR Inten    --      0.0165                 9.1441                46.5372

                     25                     26                     27
                      A                      A                      A
 Frequencies --   1142.7475              1197.6099              1219.1099
 Red. masses --      2.8228                 1.2252                 1.6858
 Frc consts  --      2.1718                 1.0353                 1.4762
 IR Inten    --     50.5265                81.1948               155.6765

                     28                     29                     30
                      A                      A                      A
 Frequencies --   1232.5332              1317.3488              1334.4873
 Red. masses --      3.3248                 5.4093                 1.4187
 Frc consts  --      2.9758                 5.5308                 1.4886
 IR Inten    --     15.6548                 9.9501                 2.1634

                     31                     32                     33
                      A                      A                      A
 Frequencies --   1397.5713              1450.1893              1554.4109
 Red. masses --      3.0134                 3.1830                 2.7154
 Frc consts  --      3.4678                 3.9440                 3.8656
 IR Inten    --    181.0564                33.0785                 2.5628

                     34                     35                     36
                      A                      A                      A
 Frequencies --   1639.4620              1685.3426              1854.8712
 Red. masses --      7.5704                 6.2014                10.6129
 Frc consts  --     11.9886                10.3781                21.5135
 IR Inten    --      4.7437                12.1279               393.1043

                     37                     38                     39
                      A                      A                      A
 Frequencies --   2408.6081              3223.9974              3226.8272
 Red. masses --     12.6862                 1.0896                 1.0904
 Frc consts  --     43.3625                 6.6729                 6.6892
 IR Inten    --     21.6996                 0.5309                 0.1337

                     40                     41                     42
                      A                      A                      A
 Frequencies --   3236.6720              3243.2344              3812.8436
 Red. masses --      1.0962                 1.0952                 1.0647
 Frc consts  --      6.7660                 6.7875                 9.1192
 IR Inten    --      1.0245                 0.5174               147.1072

 - Thermochemistry -
 -------------------
 Temperature   298.150 Kelvin.  Pressure   1.00000 Atm.
 Atom     1 has atomic number  6 and mass  12.00000

 Molecular mass:   147.03203 amu.
 Principal axes and moments of inertia in atomic units:
                           1         2         3
     Eigenvalues --   462.939983104.861393567.80137
           X            0.99999  -0.00537   0.00000
           Y            0.00537   0.99999   0.00000
           Z            0.00000   0.00000   1.00000
 This molecule is an asymmetric top.
 Rotational symmetry number  1.
 Warning -- assumption of classical behavior for rotation
           may cause significant error
 Rotational temperatures (Kelvin)      0.18710     0.02790     0.02428
 Rotational constants (GHZ):           3.89843     0.58126     0.50584
 Zero-point vibrational energy     302358.0 (Joules/Mol)
                                   72.26529 (Kcal/Mol)
 Warning -- explicit consideration of  13 degrees of freedom as
           vibrations may cause significant error
 Vibrational temperatures:     91.20   115.34   190.66   310.99   336.46
          (Kelvin)            474.90   584.54   594.25   707.16   806.35
                              809.62   835.56   862.61   946.01  1026.63
                             1027.68  1147.55  1196.40  1263.40  1296.45
                             1456.50  1471.21  1501.21  1626.07  1644.16
                             1723.09  1754.03  1773.34  1895.37  1920.03
                             2010.79  2086.50  2236.45  2358.82  2424.83
                             2668.75  3465.45  4638.61  4642.68  4656.85
                             4666.29  5485.83

 Zero-point correction=                           0.115162 (Hartree/Particle)
 Thermal correction to Energy=                    0.124046
 Thermal correction to Enthalpy=                  0.124990
 Thermal correction to Gibbs Free Energy=         0.080400
 Sum of electronic and zero-point Energies=           -512.950013
 Sum of electronic and thermal Energies=              -512.941129
 Sum of electronic and thermal Enthalpies=            -512.940185
 Sum of electronic and thermal Free Energies=         -512.984775

                     E (Thermal)             CV                S
                      KCal/Mol        Cal/Mol-Kelvin    Cal/Mol-Kelvin
 Total                   77.840             33.113             93.848
 Electronic               0.000              0.000              0.000
 Translational            0.889              2.981             40.867
 Rotational               0.889              2.981             30.018
 Vibrational             76.063             27.151             22.963
 Vibration     1          0.597              1.972              4.349
 Vibration     2          0.600              1.963              3.887
 Vibration     3          0.613              1.921              2.909
 Vibration     4          0.645              1.816              1.991
 Vibration     5          0.654              1.789              1.849
 Vibration     6          0.713              1.615              1.260
 Vibration     7          0.771              1.457              0.940
 Vibration     8          0.777              1.442              0.916
 Vibration     9          0.847              1.269              0.680
 Vibration    10          0.916              1.117              0.523
 Vibration    11          0.918              1.112              0.518
 Vibration    12          0.937              1.073              0.484
 Vibration    13          0.958              1.033              0.450

 Optimization completed.
    -- Stationary point found.
 Normal termination of Gaussian 16 at Thu Apr 27 12:35:54 2023.
