 Gaussian 16, Revision C.01,
 Gaussian 16:  ES64L-G16RevC.01  3-Jul-2019

 ------------------------------------
 # opt freq M062x/aug-cc-pvtz pop=nbo
 ------------------------------------

 -----------------
 CYH-197-A_eq00002
 -----------------
 Symbolic Z-matrix:
 Charge =  0 Multiplicity = 1

 SCF Done:  E(RM062X) =  -2994.46169022     A.U. after   13 cycles
 SCF Done:  E(RM062X) =  -2994.46204356     A.U. after   10 cycles
 SCF Done:  E(RM062X) =  -2994.46207013     A.U. after    9 cycles
 SCF Done:  E(RM062X) =  -2994.46207263     A.U. after    9 cycles
 SCF Done:  E(RM062X) =  -2994.46207249     A.U. after    8 cycles
 SCF Done:  E(RM062X) =  -2994.46207297     A.U. after    8 cycles
 Optimization completed.
    -- Stationary point found.
 Normal termination of Gaussian 16 at Thu Apr 27 11:33:54 2023.

 ----------------------------------------------------------------------
 #N Geom=AllCheck Guess=TCheck SCRF=Check GenChk RM062X/Aug-CC-pVTZ Fre
 q
 ----------------------------------------------------------------------

 Structure from the checkpoint file:  "CYH-197-A_eq00002.chk"
 -----------------
 CYH-197-A_eq00002
 -----------------
 Charge =  0 Multiplicity = 1

                         Standard orientation:
 ---------------------------------------------------------------------
 Center     Atomic      Atomic             Coordinates (Angstroms)
 Number     Number       Type             X           Y           Z
 ---------------------------------------------------------------------
      1          6           0        1.547877    0.183270    0.000001
      2          6           0        1.636980    1.570344    0.000002
      3          6           0        0.479919    2.330425    0.000006
      4          6           0       -0.764195    1.713726    0.000005
      5          6           0       -0.834922    0.329172    0.000001
      6          6           0        0.309280   -0.449152    0.000001
      7          6           0        2.814570   -0.597415   -0.000003
      8          8           0        3.912593   -0.112031   -0.000018
      9          8           0        2.612939   -1.927321    0.000016
     10         35           0       -2.530053   -0.515294   -0.000003
     11          1           0        2.615199    2.029526    0.000000
     12          1           0        0.538749    3.409703    0.000009
     13          1           0       -1.671780    2.299946    0.000007
     14          1           0        0.244046   -1.526493    0.000001
     15          1           0        3.484356   -2.344805    0.000009
 ---------------------------------------------------------------------

 SCF Done:  E(RM062X) =  -2994.46207297     A.U. after    2 cycles

 The electronic state is 1-A.
 Alpha  occ. eigenvalues -- -485.39088 -63.37590 -57.19694 -57.19463 -57.19453
 Alpha  occ. eigenvalues --  -19.68617 -19.62990 -10.69289 -10.61719 -10.57973
 Alpha  occ. eigenvalues --  -10.57517 -10.57509 -10.56938 -10.56788  -9.03834
 Alpha  occ. eigenvalues --   -6.86153  -6.85269  -6.85247  -2.89548  -2.89226
 Alpha  occ. eigenvalues --   -2.89200  -2.88387  -2.88387  -1.25481  -1.15793
 Alpha  occ. eigenvalues --   -1.00499  -0.92119  -0.88879  -0.83508  -0.77364
 Alpha  occ. eigenvalues --   -0.71883  -0.67626  -0.62652  -0.59855  -0.57716
 Alpha  occ. eigenvalues --   -0.55586  -0.54984  -0.53336  -0.49889  -0.49491
 Alpha  occ. eigenvalues --   -0.47923  -0.44828  -0.42538  -0.41727  -0.39078
 Alpha  occ. eigenvalues --   -0.37657  -0.35871  -0.33992  -0.31222
 Alpha virt. eigenvalues --   -0.03863  -0.00942  -0.00671  -0.00154   0.00689
 Alpha virt. eigenvalues --    0.01565   0.01990   0.02821   0.02899   0.04084
 Alpha virt. eigenvalues --    0.05020   0.05618   0.05687   0.05991   0.06526

 Mulliken charges:
               1
     1  C    1.687260
     2  C   -0.862915
     3  C   -0.173128
     4  C   -0.574745
     5  C    0.392141
     6  C   -0.870174
     7  C    0.390502
     8  O   -0.921676
     9  O   -0.516450
    10  Br  -0.092433
    11  H    0.169642
    12  H    0.237834
    13  H    0.413110
    14  H    0.413243
    15  H    0.307788
 Sum of Mulliken charges =   0.00000

 Dipole moment (field-independent basis, Debye):
    X=             -0.3995    Y=              0.3250    Z=              0.0000  Tot=              0.5150
 Quadrupole moment (field-independent basis, Debye-Ang):
   XX=            -76.6055   YY=            -59.5721   ZZ=            -72.1368
   XY=             -6.3182   XZ=              0.0001   YZ=              0.0001

  Exact polarizability:     149.635       2.976     117.184       0.000       0.000      65.184
 Approx polarizability:     177.341       7.600     154.571       0.000       0.000      89.082

 Summary of Natural Population Analysis:

                                       Natural Population
                Natural  -----------------------------------------------
    Atom  No    Charge         Core      Valence    Rydberg      Total
 -----------------------------------------------------------------------
      C    1   -0.16005      1.99898     4.13487    0.02619     6.16005
      C    2   -0.15774      1.99920     4.14201    0.01652     6.15774
      C    3   -0.19061      1.99927     4.17473    0.01662     6.19061
      C    4   -0.20996      1.99912     4.18871    0.02214     6.20996
      C    5   -0.10242      1.99869     4.07290    0.03083     6.10242
      C    6   -0.19678      1.99904     4.17548    0.02226     6.19678
      C    7    0.80558      1.99939     3.16198    0.03306     5.19442
      O    8   -0.59634      1.99977     6.56466    0.03191     8.59634
      O    9   -0.69857      1.99978     6.67396    0.02483     8.69857
     Br   10    0.08044     27.99911     6.90733    0.01312    34.91956
      H   11    0.23729      0.00000     0.75989    0.00282     0.76271
      H   12    0.21788      0.00000     0.77963    0.00249     0.78212
      H   13    0.22686      0.00000     0.77036    0.00278     0.77314
      H   14    0.24404      0.00000     0.75267    0.00329     0.75596
      H   15    0.50038      0.00000     0.49632    0.00330     0.49962
 =======================================================================
   * Total *    0.00000     45.99236    51.75549    0.25215    98.00000

                      1                      2                      3
                      A                      A                      A
 Frequencies --     53.0748               136.3120               143.6523
 Red. masses --     12.1744                10.3108                 5.0588
 Frc consts  --      0.0202                 0.1129                 0.0615
 IR Inten    --      2.1797                 0.8387                 0.6441

                      4                      5                      6
                      A                      A                      A
 Frequencies --    190.1274               284.6396               312.0137
 Red. masses --      4.5111                 7.6875                 8.6918
 Frc consts  --      0.0961                 0.3670                 0.4985
 IR Inten    --      0.0003                 1.4788                 1.3246

                      7                      8                      9
                      A                      A                      A
 Frequencies --    390.6504               425.0985               490.8352
 Red. masses --      7.6438                 2.9202                 3.6844
 Frc consts  --      0.6873                 0.3109                 0.5230
 IR Inten    --      5.0087                 6.7652                 0.4754

                     10                     11                     12
                      A                      A                      A
 Frequencies --    515.6966               603.0114               648.4021
 Red. masses --      6.5171                 1.2864                 5.4220
 Frc consts  --      1.0212                 0.2756                 1.3431
 IR Inten    --      6.1996                89.8939                34.6498

                     13                     14                     15
                      A                      A                      A
 Frequencies --    688.5452               696.2069               780.7464
 Red. masses --      5.8233                 2.5752                 2.4354
 Frc consts  --      1.6266                 0.7354                 0.8747
 IR Inten    --     42.3963                 1.2342                86.8803

                     16                     17                     18
                      A                      A                      A
 Frequencies --    832.9217               845.1769               946.1901
 Red. masses --      5.5677                 1.8848                 1.4423
 Frc consts  --      2.2758                 0.7932                 0.7608
 IR Inten    --     20.3079                 1.8312                 3.6822

                     19                     20                     21
                      A                      A                      A
 Frequencies --    972.2781              1019.3664              1027.1921
 Red. masses --      1.4249                 6.1788                 1.3492
 Frc consts  --      0.7936                 3.7828                 0.8388
 IR Inten    --      0.5016                 6.3799                 0.1214

                     22                     23                     24
                      A                      A                      A
 Frequencies --   1105.4469              1116.0451              1154.0312
 Red. masses --      2.1108                 1.7865                 2.7239
 Frc consts  --      1.5197                 1.3110                 2.1373
 IR Inten    --     34.0621                32.8921                67.7261

                     25                     26                     27
                      A                      A                      A
 Frequencies --   1186.8848              1214.4748              1301.3097
 Red. masses --      1.1626                 1.8070                 2.1186
 Frc consts  --      0.9649                 1.5703                 2.1138
 IR Inten    --     12.2336               217.5932                 0.8900

                     28                     29                     30
                      A                      A                      A
 Frequencies --   1330.0954              1393.7219              1463.8001
 Red. masses --      2.1342                 2.8718                 3.0921
 Frc consts  --      2.2246                 3.2867                 3.9036
 IR Inten    --      4.2885               177.8760                16.6042

                     31                     32                     33
                      A                      A                      A
 Frequencies --   1521.0867              1643.9437              1666.1946
 Red. masses --      2.6466                 6.7728                 6.4725
 Frc consts  --      3.6078                10.7844                10.5870
 IR Inten    --     22.0688                42.8914                 5.3686

                     34                     35                     36
                      A                      A                      A
 Frequencies --   1850.6990              3213.8187              3228.9114
 Red. masses --     10.5013                 1.0880                 1.0926
 Frc consts  --     21.1917                 6.6210                 6.7117
 IR Inten    --    396.7961                 2.6959                 0.7417

                     37                     38                     39
                      A                      A                      A
 Frequencies --   3235.3639              3245.8140              3816.8949
 Red. masses --      1.0969                 1.0923                 1.0646
 Frc consts  --      6.7650                 6.7803                 9.1383
 IR Inten    --      1.9545                 2.5262               135.5201

 - Thermochemistry -
 -------------------
 Temperature   298.150 Kelvin.  Pressure   1.00000 Atm.
 Atom     1 has atomic number  6 and mass  12.00000

 Molecular mass:   199.94729 amu.
 Principal axes and moments of inertia in atomic units:
                           1         2         3
     Eigenvalues --   883.517833761.158624644.67645
           X            0.99981  -0.01947   0.00000
           Y            0.01947   0.99981   0.00000
           Z            0.00000   0.00000   1.00000
 This molecule is an asymmetric top.
 Rotational symmetry number  1.
 Warning -- assumption of classical behavior for rotation
           may cause significant error
 Rotational temperatures (Kelvin)      0.09803     0.02303     0.01865
 Rotational constants (GHZ):           2.04268     0.47984     0.38856
 Zero-point vibrational energy     279272.3 (Joules/Mol)
                                   66.74767 (Kcal/Mol)
 Warning -- explicit consideration of  11 degrees of freedom as
           vibrations may cause significant error
 Vibrational temperatures:     76.36   196.12   206.68   273.55   409.53
          (Kelvin)            448.92   562.06   611.62   706.20   741.97
                              867.60   932.91   990.66  1001.69  1123.32
                             1198.39  1216.02  1361.36  1398.89  1466.64
                             1477.90  1590.49  1605.74  1660.39  1707.66
                             1747.36  1872.29  1913.71  2005.26  2106.08
                             2188.50  2365.27  2397.28  2662.74  4623.97
                             4645.68  4654.97  4670.00  5491.66

 Zero-point correction=                           0.106369 (Hartree/Particle)
 Thermal correction to Energy=                    0.114867
 Thermal correction to Enthalpy=                  0.115811
 Thermal correction to Gibbs Free Energy=         0.071033
 Sum of electronic and zero-point Energies=          -2994.355704
 Sum of electronic and thermal Energies=             -2994.347206
 Sum of electronic and thermal Enthalpies=           -2994.346262
 Sum of electronic and thermal Free Energies=        -2994.391040

                     E (Thermal)             CV                S
                      KCal/Mol        Cal/Mol-Kelvin    Cal/Mol-Kelvin
 Total                   72.080             31.260             94.243
 Electronic               0.000              0.000              0.000
 Translational            0.889              2.981             41.783
 Rotational               0.889              2.981             31.113
 Vibrational             70.302             25.298             21.346
 Vibration     1          0.596              1.976              4.699
 Vibration     2          0.614              1.917              2.855
 Vibration     3          0.616              1.910              2.755
 Vibration     4          0.633              1.853              2.227
 Vibration     5          0.683              1.702              1.506
 Vibration     6          0.700              1.651              1.352
 Vibration     7          0.758              1.490              0.998
 Vibration     8          0.787              1.416              0.875
 Vibration     9          0.847              1.270              0.681
 Vibration    10          0.871              1.215              0.620
 Vibration    11          0.961              1.025              0.445

 Optimization completed.
    -- Stationary point found.
 Normal termination of Gaussian 16 at Thu Apr 27 12:08:53 2023.
