 Gaussian 16, Revision C.01,
 Gaussian 16:  ES64L-G16RevC.01  3-Jul-2019

 ------------------------------------
 # opt freq M062x/aug-cc-pvtz pop=nbo
 ------------------------------------

 -----------------
 CYH-182-A_eq00002
 -----------------
 Symbolic Z-matrix:
 Charge =  0 Multiplicity = 1

 SCF Done:  E(RM062X) =  -520.071363024     A.U. after   14 cycles
 SCF Done:  E(RM062X) =  -520.071741001     A.U. after   10 cycles
 SCF Done:  E(RM062X) =  -520.071763242     A.U. after    9 cycles
 SCF Done:  E(RM062X) =  -520.071763081     A.U. after    9 cycles
 SCF Done:  E(RM062X) =  -520.071766294     A.U. after    9 cycles
 Optimization completed.
    -- Stationary point found.
 Normal termination of Gaussian 16 at Thu Apr 27 11:23:03 2023.

 ----------------------------------------------------------------------
 #N Geom=AllCheck Guess=TCheck SCRF=Check GenChk RM062X/Aug-CC-pVTZ Fre
 q
 ----------------------------------------------------------------------

 Structure from the checkpoint file:  "CYH-182-A_eq00002.chk"
 -----------------
 CYH-182-A_eq00002
 -----------------
 Charge =  0 Multiplicity = 1

                         Standard orientation:
 ---------------------------------------------------------------------
 Center     Atomic      Atomic             Coordinates (Angstroms)
 Number     Number       Type             X           Y           Z
 ---------------------------------------------------------------------
      1          6           0        0.646329    0.033207   -0.000119
      2          6           0       -0.024002   -1.186211   -0.000091
      3          6           0       -1.408336   -1.217634   -0.000024
      4          6           0       -2.092762   -0.016848    0.000025
      5          6           0       -1.452835    1.209528    0.000003
      6          6           0       -0.070169    1.226415   -0.000064
      7          6           0        2.127197    0.113251   -0.000225
      8          9           0       -3.430628   -0.041578    0.000098
      9          8           0        2.757949    1.135881    0.000119
     10          8           0        2.721260   -1.096025    0.000125
     11          1           0        0.539841   -2.107391   -0.000135
     12          1           0       -1.960522   -2.145900   -0.000013
     13          1           0       -2.038890    2.116831    0.000025
     14          1           0        0.474420    2.160148   -0.000086
     15          1           0        3.674600   -0.938580    0.000341
 ---------------------------------------------------------------------

 SCF Done:  E(RM062X) =  -520.071766294     A.U. after    1 cycles

 The electronic state is 1-A.
 Alpha  occ. eigenvalues --  -25.27249 -19.68254 -19.62545 -10.68878 -10.64985
 Alpha  occ. eigenvalues --  -10.57401 -10.57215 -10.57130 -10.56647 -10.56608
 Alpha  occ. eigenvalues --   -1.39247  -1.25058  -1.15343  -0.99651  -0.88743
 Alpha  occ. eigenvalues --   -0.87861  -0.76925  -0.73557  -0.69614  -0.64903
 Alpha  occ. eigenvalues --   -0.61901  -0.59860  -0.58707  -0.58072  -0.55148
 Alpha  occ. eigenvalues --   -0.54264  -0.52118  -0.50811  -0.49941  -0.46949
 Alpha  occ. eigenvalues --   -0.45700  -0.42688  -0.41174  -0.37150  -0.33826
 Alpha  occ. eigenvalues --   -0.32455
 Alpha virt. eigenvalues --   -0.02787  -0.00869  -0.00506   0.00186   0.00627
 Alpha virt. eigenvalues --    0.02104   0.02768   0.02993   0.03658   0.05258
 Alpha virt. eigenvalues --    0.05879   0.06026   0.06129   0.07060   0.07921

 Mulliken charges:
               1
     1  C    1.873492
     2  C   -0.476087
     3  C   -0.562554
     4  C    0.744423
     5  C   -0.464752
     6  C   -0.895887
     7  C    0.450865
     8  F   -0.527528
     9  O   -0.918493
    10  O   -0.519433
    11  H    0.217851
    12  H    0.290400
    13  H    0.293901
    14  H    0.185979
    15  H    0.307823
 Sum of Mulliken charges =   0.00000

 Dipole moment (field-independent basis, Debye):
    X=              0.0097    Y=             -1.4011    Z=             -0.0003  Tot=              1.4012
 Quadrupole moment (field-independent basis, Debye-Ang):
   XX=            -58.2251   YY=            -52.8783   ZZ=            -58.1073
   XY=             -6.3253   XZ=              0.0001   YZ=             -0.0005

  Exact polarizability:     118.037       1.270      93.993       0.000       0.000      51.361
 Approx polarizability:     139.410       3.592     128.392       0.000       0.002      68.793

 Summary of Natural Population Analysis:

                                       Natural Population
                Natural  -----------------------------------------------
    Atom  No    Charge         Core      Valence    Rydberg      Total
 -----------------------------------------------------------------------
      C    1   -0.20011      1.99900     4.17456    0.02655     6.20011
      C    2   -0.14092      1.99922     4.12515    0.01655     6.14092
      C    3   -0.27983      1.99915     4.26252    0.01817     6.27983
      C    4    0.43624      1.99862     3.54023    0.02490     5.56376
      C    5   -0.27804      1.99914     4.26093    0.01797     6.27804
      C    6   -0.13135      1.99922     4.11552    0.01661     6.13135
      C    7    0.80570      1.99939     3.16129    0.03363     5.19430
      F    8   -0.33529      1.99993     7.32644    0.00891     9.33529
      O    9   -0.60319      1.99977     6.57151    0.03191     8.60319
      O   10   -0.70214      1.99978     6.67744    0.02492     8.70214
      H   11    0.23157      0.00000     0.76538    0.00304     0.76843
      H   12    0.23019      0.00000     0.76698    0.00283     0.76981
      H   13    0.23072      0.00000     0.76647    0.00281     0.76928
      H   14    0.23707      0.00000     0.75992    0.00300     0.76293
      H   15    0.49939      0.00000     0.49728    0.00332     0.50061
 =======================================================================
   * Total *    0.00000     19.99323    51.77165    0.23512    72.00000

                      1                      2                      3
                      A                      A                      A
 Frequencies --     68.7992               111.3818               199.1613
 Red. masses --      7.0236                 8.5684                 7.5005
 Frc consts  --      0.0196                 0.0626                 0.1753
 IR Inten    --      1.1032                 0.2978                 1.5439

                      4                      5                      6
                      A                      A                      A
 Frequencies --    300.4725               351.7371               406.8028
 Red. masses --      6.0960                10.9091                 7.4822
 Frc consts  --      0.3243                 0.7952                 0.7295
 IR Inten    --      3.3327                 1.1668                 6.4111

                      7                      8                      9
                      A                      A                      A
 Frequencies --    425.2908               507.8876               512.2563
 Red. masses --      2.9528                 2.5454                 5.8366
 Frc consts  --      0.3147                 0.3868                 0.9024
 IR Inten    --      0.2346                30.4955                 5.0658

                     10                     11                     12
                      A                      A                      A
 Frequencies --    589.8131               603.0629               644.5777
 Red. masses --      1.2111                 6.1854                 7.2287
 Frc consts  --      0.2482                 1.3254                 1.7695
 IR Inten    --     50.6727                64.7532                 0.5871

                     13                     14                     15
                      A                      A                      A
 Frequencies --    708.3230               744.3806               799.1890
 Red. masses --      3.2576                 4.2125                 4.2865
 Frc consts  --      0.9630                 1.3753                 1.6131
 IR Inten    --     30.9916                10.0835                67.8975

                     16                     17                     18
                      A                      A                      A
 Frequencies --    851.6106               864.4546               893.4034
 Red. masses --      1.2448                 6.2996                 1.9249
 Frc consts  --      0.5319                 2.7736                 0.9052
 IR Inten    --      0.0950                23.6406                29.0468

                     19                     20                     21
                      A                      A                      A
 Frequencies --    998.0263              1011.3478              1036.5914
 Red. masses --      1.3751                 1.3589                 2.5215
 Frc consts  --      0.8070                 0.8189                 1.5963
 IR Inten    --      0.0024                 0.0140                 5.7760

                     22                     23                     24
                      A                      A                      A
 Frequencies --   1114.8968              1137.6836              1174.7384
 Red. masses --      1.3314                 3.7382                 1.1475
 Frc consts  --      0.9750                 2.8507                 0.9330
 IR Inten    --     36.7703                86.3603                58.6697

                     25                     26                     27
                      A                      A                      A
 Frequencies --   1217.5609              1293.9277              1315.4661
 Red. masses --      1.7150                 4.0945                 1.3823
 Frc consts  --      1.4980                 4.0389                 1.4094
 IR Inten    --    190.7551               106.8486                10.4870

                     28                     29                     30
                      A                      A                      A
 Frequencies --   1335.2437              1395.7451              1459.9792
 Red. masses --      6.3402                 3.0867                 3.7120
 Frc consts  --      6.6600                 3.5429                 4.6617
 IR Inten    --      0.8619               203.8059                24.2532

                     31                     32                     33
                      A                      A                      A
 Frequencies --   1563.8976              1667.5465              1679.5729
 Red. masses --      3.1069                 7.9175                 6.4331
 Frc consts  --      4.4770                12.9716                10.6922
 IR Inten    --     53.2261                 7.2980               130.9914

                     34                     35                     36
                      A                      A                      A
 Frequencies --   1847.7463              3225.1172              3230.2892
 Red. masses --     10.3907                 1.0894                 1.0894
 Frc consts  --     20.9015                 6.6763                 6.6978
 IR Inten    --    399.2394                 0.1439                 0.2277

                     37                     38                     39
                      A                      A                      A
 Frequencies --   3238.6810              3242.7226              3816.3090
 Red. masses --      1.0959                 1.0959                 1.0646
 Frc consts  --      6.7726                 6.7893                 9.1356
 IR Inten    --      1.5038                 1.2666               129.5732

 - Thermochemistry -
 -------------------
 Temperature   298.150 Kelvin.  Pressure   1.00000 Atm.
 Atom     1 has atomic number  6 and mass  12.00000

 Molecular mass:   140.02736 amu.
 Principal axes and moments of inertia in atomic units:
                           1         2         3
     Eigenvalues --   462.545792310.002032772.54780
           X            0.99997  -0.00736   0.00000
           Y            0.00736   0.99997   0.00000
           Z            0.00000   0.00000   1.00000
 This molecule is an asymmetric top.
 Rotational symmetry number  1.
 Warning -- assumption of classical behavior for rotation
           may cause significant error
 Rotational temperatures (Kelvin)      0.18725     0.03750     0.03124
 Rotational constants (GHZ):           3.90176     0.78127     0.65093
 Zero-point vibrational energy     284625.7 (Joules/Mol)
                                   68.02716 (Kcal/Mol)
 Warning -- explicit consideration of  11 degrees of freedom as
           vibrations may cause significant error
 Vibrational temperatures:     98.99   160.25   286.55   432.31   506.07
          (Kelvin)            585.30   611.90   730.74   737.02   848.61
                              867.67   927.40  1019.12  1071.00  1149.85
                             1225.28  1243.76  1285.41  1435.94  1455.10
                             1491.42  1604.09  1636.87  1690.19  1751.80
                             1861.67  1892.66  1921.12  2008.17  2100.58
                             2250.10  2399.23  2416.53  2658.49  4640.22
                             4647.67  4659.74  4665.55  5490.82

 Zero-point correction=                           0.108408 (Hartree/Particle)
 Thermal correction to Energy=                    0.116278
 Thermal correction to Enthalpy=                  0.117222
 Thermal correction to Gibbs Free Energy=         0.075155
 Sum of electronic and zero-point Energies=           -519.963358
 Sum of electronic and thermal Energies=              -519.955489
 Sum of electronic and thermal Enthalpies=            -519.954544
 Sum of electronic and thermal Free Energies=         -519.996612

                     E (Thermal)             CV                S
                      KCal/Mol        Cal/Mol-Kelvin    Cal/Mol-Kelvin
 Total                   72.965             29.935             88.538
 Electronic               0.000              0.000              0.000
 Translational            0.889              2.981             40.722
 Rotational               0.889              2.981             29.473
 Vibrational             71.188             23.974             18.344
 Vibration     1          0.598              1.969              4.187
 Vibration     2          0.607              1.940              3.245
 Vibration     3          0.637              1.841              2.141
 Vibration     4          0.693              1.673              1.414
 Vibration     5          0.728              1.572              1.158
 Vibration     6          0.772              1.455              0.938
 Vibration     7          0.787              1.415              0.874
 Vibration     8          0.863              1.233              0.639
 Vibration     9          0.867              1.223              0.628
 Vibration    10          0.947              1.053              0.468
 Vibration    11          0.961              1.025              0.444

 Optimization completed.
    -- Stationary point found.
 Normal termination of Gaussian 16 at Thu Apr 27 11:49:44 2023.
