 Gaussian 16, Revision C.01,
 Gaussian 16:  ES64L-G16RevC.01  3-Jul-2019

 ------------------------------------
 # opt freq M062x/aug-cc-pvtz pop=nbo
 ------------------------------------

 -----------------
 CYH-217-A_eq00002
 -----------------
 Symbolic Z-matrix:
 Charge =  0 Multiplicity = 1

 SCF Done:  E(RM062X) =  -534.144825345     A.U. after   14 cycles
 SCF Done:  E(RM062X) =  -534.145439590     A.U. after   11 cycles
 SCF Done:  E(RM062X) =  -534.145477157     A.U. after    9 cycles
 SCF Done:  E(RM062X) =  -534.145478631     A.U. after   10 cycles
 SCF Done:  E(RM062X) =  -534.145478902     A.U. after   10 cycles
 SCF Done:  E(RM062X) =  -534.145480422     A.U. after    9 cycles
 SCF Done:  E(RM062X) =  -534.145480827     A.U. after    8 cycles
 Optimization completed.
    -- Stationary point found.
 Normal termination of Gaussian 16 at Thu Apr 27 13:19:56 2023.

 ----------------------------------------------------------------------
 #N Geom=AllCheck Guess=TCheck SCRF=Check GenChk RM062X/Aug-CC-pVTZ Fre
 q
 ----------------------------------------------------------------------

 Structure from the checkpoint file:  "CYH-217-A_eq00002.chk"
 -----------------
 CYH-217-A_eq00002
 -----------------
 Charge =  0 Multiplicity = 1

                         Standard orientation:
 ---------------------------------------------------------------------
 Center     Atomic      Atomic             Coordinates (Angstroms)
 Number     Number       Type             X           Y           Z
 ---------------------------------------------------------------------
      1          6           0       -1.021972    0.048095   -0.000030
      2          6           0       -0.406396    1.294134    0.000013
      3          6           0        0.975883    1.370482    0.000032
      4          6           0        1.735827    0.206292    0.000002
      5          6           0        1.116909   -1.040825   -0.000044
      6          6           0       -0.262826   -1.121544   -0.000055
      7          6           0       -2.511077    0.013993   -0.000060
      8          8           0       -3.213215    0.987701   -0.000049
      9          8           0       -3.007851   -1.235425    0.000111
     10          6           0        3.216961    0.304020    0.000019
     11          8           0        3.955119   -0.643792    0.000007
     12          1           0       -1.023718    2.181246    0.000027
     13          1           0        1.471306    2.333647    0.000070
     14          1           0        1.734263   -1.928688   -0.000068
     15          1           0       -0.759789   -2.080360   -0.000086
     16          1           0       -3.971004   -1.156741    0.000147
     17          1           0        3.616664    1.335138    0.000096
 ---------------------------------------------------------------------

 SCF Done:  E(RM062X) =  -534.145480827     A.U. after    1 cycles

 The electronic state is 1-A.
 Alpha  occ. eigenvalues --  -19.68958 -19.64106 -19.63360 -10.69612 -10.64403
 Alpha  occ. eigenvalues --  -10.58446 -10.57691 -10.57603 -10.57391 -10.57317
 Alpha  occ. eigenvalues --  -10.57084  -1.25830  -1.19196  -1.16152  -1.00118
 Alpha  occ. eigenvalues --   -0.90498  -0.87791  -0.79541  -0.72831  -0.72121
 Alpha  occ. eigenvalues --   -0.67153  -0.62987  -0.60595  -0.58728  -0.55913
 Alpha  occ. eigenvalues --   -0.55595  -0.54511  -0.52409  -0.51884  -0.50303
 Alpha  occ. eigenvalues --   -0.50266  -0.46433  -0.45686  -0.43006  -0.41854
 Alpha  occ. eigenvalues --   -0.37832  -0.34955  -0.34229  -0.33797
 Alpha virt. eigenvalues --   -0.06545  -0.01074  -0.00856  -0.00311   0.00755
 Alpha virt. eigenvalues --    0.01504   0.01680   0.02688   0.03081   0.03521
 Alpha virt. eigenvalues --    0.03814   0.04142   0.05240   0.05917   0.06592

 Mulliken charges:
               1
     1  C    1.917709
     2  C   -0.772584
     3  C   -0.684178
     4  C    1.730213
     5  C   -0.710441
     6  C   -0.591276
     7  C    0.484118
     8  O   -0.917719
     9  O   -0.550443
    10  C   -0.131813
    11  O   -0.871233
    12  H    0.086068
    13  H    0.075571
    14  H    0.070136
    15  H    0.138030
    16  H    0.300705
    17  H    0.427135
 Sum of Mulliken charges =   0.00000

 Dipole moment (field-independent basis, Debye):
    X=             -1.3470    Y=              0.2971    Z=              0.0001  Tot=              1.3794
 Quadrupole moment (field-independent basis, Debye-Ang):
   XX=            -71.8087   YY=            -59.1406   ZZ=            -64.1520
   XY=             13.8947   XZ=             -0.0003   YZ=              0.0005

  Exact polarizability:     151.431      -2.049     106.029       0.000       0.001      57.764
 Approx polarizability:     169.919      -8.568     148.828       0.000       0.001      78.655

 Summary of Natural Population Analysis:

                                       Natural Population
                Natural  -----------------------------------------------
    Atom  No    Charge         Core      Valence    Rydberg      Total
 -----------------------------------------------------------------------
      C    1   -0.15217      1.99901     4.12697    0.02618     6.15217
      C    2   -0.15784      1.99920     4.14191    0.01672     6.15784
      C    3   -0.17207      1.99920     4.15696    0.01591     6.17207
      C    4   -0.15077      1.99910     4.12857    0.02311     6.15077
      C    5   -0.15789      1.99918     4.14195    0.01676     6.15789
      C    6   -0.16474      1.99921     4.14908    0.01645     6.16474
      C    7    0.80227      1.99939     3.16535    0.03299     5.19773
      O    8   -0.59429      1.99977     6.56263    0.03189     8.59429
      O    9   -0.69741      1.99978     6.67256    0.02506     8.69741
      C   10    0.43311      1.99946     3.53702    0.03041     5.56689
      O   11   -0.51530      1.99980     6.48643    0.02908     8.51530
      H   12    0.23770      0.00000     0.75947    0.00283     0.76230
      H   13    0.21475      0.00000     0.78251    0.00274     0.78525
      H   14    0.23441      0.00000     0.76257    0.00302     0.76559
      H   15    0.23219      0.00000     0.76497    0.00283     0.76781
      H   16    0.50080      0.00000     0.49595    0.00325     0.49920
      H   17    0.10726      0.00000     0.88936    0.00338     0.89274
 =======================================================================
   * Total *    0.00000     21.99311    55.72427    0.28262    78.00000

                      1                      2                      3
                      A                      A                      A
 Frequencies --     59.2831                77.3267               151.5561
 Red. masses --      8.3959                 7.3681                 3.3884
 Frc consts  --      0.0174                 0.0260                 0.0459
 IR Inten    --      4.6644                 1.5221                 8.3088

                      4                      5                      6
                      A                      A                      A
 Frequencies --    159.7803               255.8026               281.8263
 Red. masses --      8.2879                 6.5916                 3.3260
 Frc consts  --      0.1247                 0.2541                 0.1556
 IR Inten    --      7.2134                 2.0509                 1.1635

                      7                      8                      9
                      A                      A                      A
 Frequencies --    332.5948               412.4751               470.9182
 Red. masses --      7.8363                 2.8331                 2.8156
 Frc consts  --      0.5107                 0.2840                 0.3679
 IR Inten    --      6.0066                 0.0916                24.7820

                     10                     11                     12
                      A                      A                      A
 Frequencies --    502.5086               526.4390               599.2038
 Red. masses --      7.4984                 6.4552                 1.2339
 Frc consts  --      1.1156                 1.0540                 0.2610
 IR Inten    --      5.1875                20.5824                54.9778

                     13                     14                     15
                      A                      A                      A
 Frequencies --    641.3801               668.5311               701.5459
 Red. masses --      6.8671                 5.1534                 3.4692
 Frc consts  --      1.6644                 1.3570                 1.0060
 IR Inten    --      0.5515                 7.3211                27.0845

                     16                     17                     18
                      A                      A                      A
 Frequencies --    762.3006               787.6575               865.3848
 Red. masses --      4.2462                 2.8142                 5.1316
 Frc consts  --      1.4538                 1.0287                 2.2642
 IR Inten    --    105.2173                75.0055                21.8997

                     19                     20                     21
                      A                      A                      A
 Frequencies --    885.2935               893.2662              1013.3862
 Red. masses --      1.3100                 1.7335                 1.3574
 Frc consts  --      0.6049                 0.8149                 0.8213
 IR Inten    --      2.1332                10.8375                 0.4149

                     22                     23                     24
                      A                      A                      A
 Frequencies --   1027.5367              1040.2324              1052.6692
 Red. masses --      1.3909                 2.8104                 1.7822
 Frc consts  --      0.8652                 1.7917                 1.1636
 IR Inten    --      0.0002                 5.8149                 1.4309

                     25                     26                     27
                      A                      A                      A
 Frequencies --   1125.2901              1141.0067              1189.3742
 Red. masses --      1.4773                 3.3566                 1.1827
 Frc consts  --      1.1022                 2.5747                 0.9857
 IR Inten    --     38.2427                63.8413                14.1272

                     28                     29                     30
                      A                      A                      A
 Frequencies --   1214.6944              1237.7208              1328.7294
 Red. masses --      1.7755                 2.7103                 1.3419
 Frc consts  --      1.5435                 2.4463                 1.3959
 IR Inten    --    284.9567                24.9951                 7.8317

                     31                     32                     33
                      A                      A                      A
 Frequencies --   1338.0928              1397.4941              1420.1564
 Red. masses --      6.7852                 3.0997                 1.4896
 Frc consts  --      7.1579                 3.5667                 1.7701
 IR Inten    --     21.5367               159.9131                36.3260

                     34                     35                     36
                      A                      A                      A
 Frequencies --   1462.1050              1552.5332              1650.8166
 Red. masses --      2.3084                 2.6989                 7.3685
 Frc consts  --      2.9075                 3.8329                11.8311
 IR Inten    --     21.4563                21.9850                 0.0200

                     37                     38                     39
                      A                      A                      A
 Frequencies --   1684.1048              1839.9332              1851.9144
 Red. masses --      6.1706                10.7356                10.5374
 Frc consts  --     10.3114                21.4131                21.2925
 IR Inten    --      2.3767               476.2823               212.6175

                     40                     41                     42
                      A                      A                      A
 Frequencies --   2964.4438              3196.7126              3220.4556
 Red. masses --      1.0854                 1.0902                 1.0899
 Frc consts  --      5.6196                 6.5637                 6.6600
 IR Inten    --     84.6766                 2.9433                 0.8703

                     43                     44                     45
                      A                      A                      A
 Frequencies --   3231.0350              3239.6799              3816.5726
 Red. masses --      1.0936                 1.0945                 1.0646
 Frc consts  --      6.7268                 6.7682                 9.1366
 IR Inten    --      0.9004                 0.0048               140.1641

 - Thermochemistry -
 -------------------
 Temperature   298.150 Kelvin.  Pressure   1.00000 Atm.
 Atom     1 has atomic number  6 and mass  12.00000

 Molecular mass:   150.03169 amu.
 Principal axes and moments of inertia in atomic units:
                           1         2         3
     Eigenvalues --   501.581413120.521263622.10266
           X            0.99993   0.01198   0.00000
           Y           -0.01198   0.99993   0.00000
           Z            0.00000   0.00000   1.00000
 This molecule is an asymmetric top.
 Rotational symmetry number  1.
 Warning -- assumption of classical behavior for rotation
           may cause significant error
 Rotational temperatures (Kelvin)      0.17268     0.02776     0.02391
 Rotational constants (GHZ):           3.59810     0.57835     0.49826
 Zero-point vibrational energy     330598.6 (Joules/Mol)
                                   79.01495 (Kcal/Mol)
 Warning -- explicit consideration of  12 degrees of freedom as
           vibrations may cause significant error
 Vibrational temperatures:     85.30   111.26   218.06   229.89   368.04
          (Kelvin)            405.49   478.53   593.46   677.55   723.00
                              757.43   862.12   922.80   961.87  1009.37
                             1096.78  1133.26  1245.10  1273.74  1285.21
                             1458.04  1478.40  1496.66  1514.56  1619.04
                             1641.65  1711.24  1747.67  1780.80  1911.75
                             1925.22  2010.68  2043.29  2103.64  2233.75
                             2375.16  2423.05  2647.25  2664.49  4265.17
                             4599.36  4633.52  4648.74  4661.18  5491.20

 Zero-point correction=                           0.125918 (Hartree/Particle)
 Thermal correction to Energy=                    0.135042
 Thermal correction to Enthalpy=                  0.135986
 Thermal correction to Gibbs Free Energy=         0.090792
 Sum of electronic and zero-point Energies=           -534.019562
 Sum of electronic and thermal Energies=              -534.010439
 Sum of electronic and thermal Enthalpies=            -534.009495
 Sum of electronic and thermal Free Energies=         -534.054689

                     E (Thermal)             CV                S
                      KCal/Mol        Cal/Mol-Kelvin    Cal/Mol-Kelvin
 Total                   84.740             33.825             95.119
 Electronic               0.000              0.000              0.000
 Translational            0.889              2.981             40.927
 Rotational               0.889              2.981             30.118
 Vibrational             82.962             27.863             24.074
 Vibration     1          0.597              1.974              4.481
 Vibration     2          0.599              1.964              3.958
 Vibration     3          0.619              1.901              2.653
 Vibration     4          0.622              1.892              2.552
 Vibration     5          0.666              1.753              1.690
 Vibration     6          0.681              1.707              1.523
 Vibration     7          0.715              1.610              1.247
 Vibration     8          0.776              1.443              0.918
 Vibration     9          0.828              1.315              0.735
 Vibration    10          0.858              1.244              0.652
 Vibration    11          0.881              1.191              0.595
 Vibration    12          0.957              1.033              0.451

 Optimization completed.
    -- Stationary point found.
 Normal termination of Gaussian 16 at Thu Apr 27 14:04:12 2023.
