 Gaussian 16, Revision C.01,
 Gaussian 16:  ES64L-G16RevC.01  3-Jul-2019

 ------------------------------------
 # opt freq M062x/aug-cc-pvtz pop=nbo
 ------------------------------------

 -----------------
 CYH-213-A_eq00000
 -----------------
 Symbolic Z-matrix:
 Charge =  0 Multiplicity = 1

 SCF Done:  E(RM062X) =  -880.429378366     A.U. after   14 cycles
 SCF Done:  E(RM062X) =  -880.429723292     A.U. after   10 cycles
 SCF Done:  E(RM062X) =  -880.429754359     A.U. after    9 cycles
 SCF Done:  E(RM062X) =  -880.429757796     A.U. after    9 cycles
 Optimization completed.
    -- Stationary point found.
 Normal termination of Gaussian 16 at Thu Apr 27 12:55:05 2023.

 ----------------------------------------------------------------------
 #N Geom=AllCheck Guess=TCheck SCRF=Check GenChk RM062X/Aug-CC-pVTZ Fre
 q
 ----------------------------------------------------------------------

 Structure from the checkpoint file:  "CYH-213-A_eq00000.chk"
 -----------------
 CYH-213-A_eq00000
 -----------------
 Charge =  0 Multiplicity = 1

                         Standard orientation:
 ---------------------------------------------------------------------
 Center     Atomic      Atomic             Coordinates (Angstroms)
 Number     Number       Type             X           Y           Z
 ---------------------------------------------------------------------
      1          6           0       -1.077991    0.034038   -0.000011
      2          6           0       -0.401421   -1.180939   -0.000011
      3          6           0        0.983193   -1.204163   -0.000006
      4          6           0        1.677050   -0.003825    0.000000
      5          6           0        1.016460    1.216524   -0.000001
      6          6           0       -0.366392    1.229044   -0.000006
      7          6           0       -2.560810    0.107227   -0.000019
      8          8           0       -3.194411    1.127741    0.000009
      9          8           0       -3.148179   -1.104272    0.000016
     10         17           0        3.410853   -0.027937    0.000007
     11          1           0       -0.958705   -2.106260   -0.000015
     12          1           0        1.525307   -2.138259   -0.000006
     13          1           0        1.584387    2.135174    0.000003
     14          1           0       -0.912811    2.161851   -0.000006
     15          1           0       -4.102500   -0.952759    0.000036
 ---------------------------------------------------------------------

 SCF Done:  E(RM062X) =  -880.429757796     A.U. after    1 cycles

 The electronic state is 1-A.
 Alpha  occ. eigenvalues -- -102.69158 -19.68448 -19.62766 -10.69073 -10.62580
 Alpha  occ. eigenvalues --  -10.57534 -10.57347 -10.57124 -10.57035 -10.56980
 Alpha  occ. eigenvalues --   -9.82855  -7.55088  -7.54549  -7.54522  -1.25270
 Alpha  occ. eigenvalues --   -1.15564  -1.01820  -0.96120  -0.87735  -0.86671
 Alpha  occ. eigenvalues --   -0.75784  -0.72650  -0.68528  -0.63034  -0.59589
 Alpha  occ. eigenvalues --   -0.56312  -0.55425  -0.55393  -0.53928  -0.51940
 Alpha  occ. eigenvalues --   -0.49346  -0.48776  -0.45176  -0.43731  -0.42237
 Alpha  occ. eigenvalues --   -0.40870  -0.39039  -0.37288  -0.33825  -0.31913
 Alpha virt. eigenvalues --   -0.03650  -0.00937  -0.00614   0.00140   0.00605
 Alpha virt. eigenvalues --    0.01898   0.02706   0.03021   0.03460   0.04508
 Alpha virt. eigenvalues --    0.04693   0.05856   0.05919   0.06798   0.07225

 Mulliken charges:
               1
     1  C    1.787690
     2  C   -0.486754
     3  C   -0.646062
     4  C    0.703521
     5  C   -0.559793
     6  C   -0.767081
     7  C    0.373315
     8  O   -0.902696
     9  O   -0.532308
    10  Cl  -0.282381
    11  H    0.203675
    12  H    0.311867
    13  H    0.312149
    14  H    0.177460
    15  H    0.307399
 Sum of Mulliken charges =   0.00000

 Dipole moment (field-independent basis, Debye):
    X=             -0.1479    Y=             -1.4022    Z=              0.0000  Tot=              1.4100
 Quadrupole moment (field-independent basis, Debye-Ang):
   XX=            -64.7030   YY=            -60.8657   ZZ=            -66.1323
   XY=              6.8987   XZ=              0.0000   YZ=              0.0000

  Exact polarizability:     150.814      -1.547     101.537       0.000       0.000      59.625
 Approx polarizability:     170.561      -3.813     142.544       0.000       0.000      81.494

 Summary of Natural Population Analysis:

                                       Natural Population
                Natural  -----------------------------------------------
    Atom  No    Charge         Core      Valence    Rydberg      Total
 -----------------------------------------------------------------------
      C    1   -0.18283      1.99899     4.15828    0.02556     6.18283
      C    2   -0.14873      1.99920     4.13033    0.01920     6.14873
      C    3   -0.23157      1.99911     4.21448    0.01797     6.23157
      C    4   -0.01507      1.99872     3.98557    0.03077     6.01507
      C    5   -0.23015      1.99911     4.21324    0.01779     6.23015
      C    6   -0.13914      1.99920     4.12074    0.01919     6.13914
      C    7    0.80518      1.99939     3.16242    0.03302     5.19482
      O    8   -0.59996      1.99977     6.56851    0.03168     8.59996
      O    9   -0.70056      1.99978     6.67594    0.02484     8.70056
     Cl   10    0.01553      9.99964     6.96833    0.01649    16.98447
      H   11    0.23244      0.00000     0.76459    0.00297     0.76756
      H   12    0.22827      0.00000     0.76889    0.00284     0.77173
      H   13    0.22881      0.00000     0.76838    0.00281     0.77119
      H   14    0.23795      0.00000     0.75912    0.00293     0.76205
      H   15    0.49984      0.00000     0.49689    0.00328     0.50016
 =======================================================================
   * Total *    0.00000     27.99293    51.75572    0.25136    80.00000

                      1                      2                      3
                      A                      A                      A
 Frequencies --     67.3577                89.7070               176.6783
 Red. masses --      6.9474                 9.0890                 9.0920
 Frc consts  --      0.0186                 0.0431                 0.1672
 IR Inten    --      1.1131                 0.1750                 1.2983

                      4                      5                      6
                      A                      A                      A
 Frequencies --    265.6620               312.1306               317.4068
 Red. masses --      6.1322                11.6889                 6.8481
 Frc consts  --      0.2550                 0.6710                 0.4065
 IR Inten    --      0.6208                 1.0266                 0.8571

                      7                      8                      9
                      A                      A                      A
 Frequencies --    412.3126               481.8807               502.3973
 Red. masses --      2.8763                 2.8348                 6.2031
 Frc consts  --      0.2881                 0.3878                 0.9225
 IR Inten    --      0.2257                28.8068                16.0181

                     10                     11                     12
                      A                      A                      A
 Frequencies --    536.2841               589.9940               641.5398
 Red. masses --      8.2297                 1.2145                 7.1357
 Frc consts  --      1.3945                 0.2491                 1.7303
 IR Inten    --     32.0295                54.9498                 1.1360

                     13                     14                     15
                      A                      A                      A
 Frequencies --    690.1216               706.5558               790.0372
 Red. masses --      4.6061                 3.7016                 3.2744
 Frc consts  --      1.2925                 1.0888                 1.2041
 IR Inten    --     19.1161                25.3285                72.1356

                     16                     17                     18
                      A                      A                      A
 Frequencies --    807.0897               862.4366               888.3175
 Red. masses --      5.3268                 1.2523                 1.8954
 Frc consts  --      2.0444                 0.5488                 0.8812
 IR Inten    --     42.8343                 0.0875                14.2484

                     19                     20                     21
                      A                      A                      A
 Frequencies --    999.7400              1013.2114              1036.8581
 Red. masses --      1.3505                 1.3690                 3.6434
 Frc consts  --      0.7953                 0.8280                 2.3078
 IR Inten    --      0.0742                 0.0472                28.3547

                     22                     23                     24
                      A                      A                      A
 Frequencies --   1126.0105              1127.4658              1141.1361
 Red. masses --      1.5238                 2.7574                 3.3187
 Frc consts  --      1.1383                 2.0651                 2.5462
 IR Inten    --     58.4291                70.0018                44.8123

                     25                     26                     27
                      A                      A                      A
 Frequencies --   1194.6483              1221.4947              1312.9711
 Red. masses --      1.1954                 1.6539                 3.2509
 Frc consts  --      1.0052                 1.4540                 3.3019
 IR Inten    --     79.5773               169.2568                 3.2128

                     28                     29                     30
                      A                      A                      A
 Frequencies --   1327.5857              1395.2767              1446.9143
 Red. masses --      1.7040                 2.9065                 3.3036
 Frc consts  --      1.7695                 3.3338                 4.0750
 IR Inten    --      2.8994               185.4869                36.2985

                     31                     32                     33
                      A                      A                      A
 Frequencies --   1538.2217              1646.6004              1668.0229
 Red. masses --      2.6503                 7.7531                 6.1630
 Frc consts  --      3.6947                12.3852                10.1029
 IR Inten    --     18.7953                 4.1883                94.7044

                     34                     35                     36
                      A                      A                      A
 Frequencies --   1848.7972              3223.1600              3228.1166
 Red. masses --     10.4386                 1.0893                 1.0893
 Frc consts  --     21.0219                 6.6674                 6.6880
 IR Inten    --    414.4241                 0.4604                 0.0387

                     37                     38                     39
                      A                      A                      A
 Frequencies --   3236.6981              3241.2371              3816.1156
 Red. masses --      1.0958                 1.0958                 1.0646
 Frc consts  --      6.7636                 6.7825                 9.1346
 IR Inten    --      0.5594                 0.4927               137.7886

 - Thermochemistry -
 -------------------
 Temperature   298.150 Kelvin.  Pressure   1.00000 Atm.
 Atom     1 has atomic number  6 and mass  12.00000

 Molecular mass:   155.99781 amu.
 Principal axes and moments of inertia in atomic units:
                           1         2         3
     Eigenvalues --   461.805923234.950903696.75682
           X            0.99999   0.00537   0.00000
           Y           -0.00537   0.99999   0.00000
           Z            0.00000   0.00000   1.00000
 This molecule is an asymmetric top.
 Rotational symmetry number  1.
 Warning -- assumption of classical behavior for rotation
           may cause significant error
 Rotational temperatures (Kelvin)      0.18755     0.02677     0.02343
 Rotational constants (GHZ):           3.90801     0.55789     0.48820
 Zero-point vibrational energy     280692.9 (Joules/Mol)
                                   67.08722 (Kcal/Mol)
 Warning -- explicit consideration of  11 degrees of freedom as
           vibrations may cause significant error
 Vibrational temperatures:     96.91   129.07   254.20   382.23   449.09
          (Kelvin)            456.68   593.23   693.32   722.84   771.59
                              848.87   923.03   992.93  1016.58  1136.69
                             1161.22  1240.85  1278.09  1438.40  1457.79
                             1491.81  1620.08  1622.17  1641.84  1718.83
                             1757.46  1889.07  1910.10  2007.49  2081.79
                             2213.16  2369.09  2399.91  2660.01  4637.41
                             4644.54  4656.89  4663.42  5490.54

 Zero-point correction=                           0.106910 (Hartree/Particle)
 Thermal correction to Energy=                    0.115174
 Thermal correction to Enthalpy=                  0.116118
 Thermal correction to Gibbs Free Energy=         0.072715
 Sum of electronic and zero-point Energies=           -880.322848
 Sum of electronic and thermal Energies=              -880.314584
 Sum of electronic and thermal Enthalpies=            -880.313640
 Sum of electronic and thermal Free Energies=         -880.357043

                     E (Thermal)             CV                S
                      KCal/Mol        Cal/Mol-Kelvin    Cal/Mol-Kelvin
 Total                   72.273             30.861             91.350
 Electronic               0.000              0.000              0.000
 Translational            0.889              2.981             41.043
 Rotational               0.889              2.981             30.092
 Vibrational             70.495             24.900             20.215
 Vibration     1          0.598              1.970              4.229
 Vibration     2          0.602              1.956              3.666
 Vibration     3          0.628              1.871              2.363
 Vibration     4          0.671              1.736              1.624
 Vibration     5          0.700              1.651              1.351
 Vibration     6          0.704              1.640              1.323
 Vibration     7          0.776              1.443              0.918
 Vibration     8          0.838              1.290              0.705
 Vibration     9          0.858              1.245              0.652
 Vibration    10          0.891              1.170              0.573
 Vibration    11          0.947              1.053              0.467

 Optimization completed.
    -- Stationary point found.
 Normal termination of Gaussian 16 at Thu Apr 27 13:27:35 2023.
