 Gaussian 16, Revision C.01,
 Gaussian 16:  ES64L-G16RevC.01  3-Jul-2019

 ------------------------------------
 # opt freq M062x/aug-cc-pvtz pop=nbo
 ------------------------------------

 -----------------
 CYH-219-A_eq00005
 -----------------
 Symbolic Z-matrix:
 Charge =  0 Multiplicity = 1

 SCF Done:  E(RM062X) =  -572.251992473     A.U. after   13 cycles
 SCF Done:  E(RM062X) =  -572.252876969     A.U. after   11 cycles
 SCF Done:  E(RM062X) =  -572.252963488     A.U. after    9 cycles
 SCF Done:  E(RM062X) =  -572.252969252     A.U. after    9 cycles
 SCF Done:  E(RM062X) =  -572.252968474     A.U. after    8 cycles
 SCF Done:  E(RM062X) =  -572.252968280     A.U. after    9 cycles
 SCF Done:  E(RM062X) =  -572.252969551     A.U. after    8 cycles
 Optimization completed.
    -- Stationary point found.
 Normal termination of Gaussian 16 at Thu Apr 27 14:22:49 2023.

 ----------------------------------------------------------------------
 #N Geom=AllCheck Guess=TCheck SCRF=Check GenChk RM062X/Aug-CC-pVTZ Fre
 q
 ----------------------------------------------------------------------

 Structure from the checkpoint file:  "CYH-219-A_eq00005.chk"
 -----------------
 CYH-219-A_eq00005
 -----------------
 Charge =  0 Multiplicity = 1

                         Standard orientation:
 ---------------------------------------------------------------------
 Center     Atomic      Atomic             Coordinates (Angstroms)
 Number     Number       Type             X           Y           Z
 ---------------------------------------------------------------------
      1          6           0        1.132859    0.108373    0.000104
      2          6           0        0.682507    1.438894    0.000056
      3          6           0       -0.664036    1.737161    0.000004
      4          6           0       -1.533362    0.657782   -0.000007
      5          6           0       -1.116956   -0.676642    0.000032
      6          6           0        0.246453   -0.957904    0.000087
      7          6           0        2.599339   -0.111318    0.000177
      8          8           0       -2.886141    0.726714   -0.000061
      9          6           0       -3.336521   -0.562654   -0.000061
     10          6           0       -2.331211   -1.455199    0.000011
     11          1           0        1.423276    2.225546    0.000067
     12          1           0       -1.029688    2.753192   -0.000024
     13          1           0        0.613974   -1.973499    0.000128
     14          8           0        3.426406    0.761109   -0.000130
     15          8           0        2.940808   -1.416123   -0.000088
     16          1           0        3.906211   -1.448638   -0.000281
     17          1           0       -4.406207   -0.674947   -0.000107
     18          1           0       -2.430584   -2.526212    0.000033
 ---------------------------------------------------------------------

 SCF Done:  E(RM062X) =  -572.252969551     A.U. after    1 cycles

 The electronic state is 1-A.
 Alpha  occ. eigenvalues --  -19.70687 -19.67594 -19.61882 -10.68184 -10.61604
 Alpha  occ. eigenvalues --  -10.61487 -10.56665 -10.56467 -10.56449 -10.56096
 Alpha  occ. eigenvalues --  -10.55934 -10.55707  -1.25693  -1.24388  -1.14641
 Alpha  occ. eigenvalues --   -0.98640  -0.92027  -0.88192  -0.84529  -0.76970
 Alpha  occ. eigenvalues --   -0.72735  -0.69221  -0.67445  -0.61985  -0.60498
 Alpha  occ. eigenvalues --   -0.58199  -0.57881  -0.56296  -0.54389  -0.53061
 Alpha  occ. eigenvalues --   -0.50810  -0.50020  -0.49043  -0.47534  -0.45926
 Alpha  occ. eigenvalues --   -0.44212  -0.41605  -0.40508  -0.37534  -0.36453
 Alpha  occ. eigenvalues --   -0.31300  -0.29271
 Alpha virt. eigenvalues --   -0.02018  -0.00754  -0.00606  -0.00076   0.00495
 Alpha virt. eigenvalues --    0.01341   0.02431   0.02794   0.03165   0.04186
 Alpha virt. eigenvalues --    0.04611   0.04657   0.05322   0.05890   0.05917

 Mulliken charges:
               1
     1  C    1.639193
     2  C   -0.704559
     3  C   -0.519999
     4  C    0.884235
     5  C    1.204714
     6  C   -0.727325
     7  C    0.505774
     8  O   -0.748345
     9  C   -0.596753
    10  C   -0.815046
    11  H    0.018935
    12  H    0.222229
    13  H   -0.094029
    14  O   -0.938906
    15  O   -0.544371
    16  H    0.291112
    17  H    0.723739
    18  H    0.199403
 Sum of Mulliken charges =   0.00000

 Dipole moment (field-independent basis, Debye):
    X=             -2.0870    Y=             -1.9193    Z=              0.0002  Tot=              2.8353
 Quadrupole moment (field-independent basis, Debye-Ang):
   XX=            -63.9256   YY=            -62.5479   ZZ=            -70.9491
   XY=             -3.6752   XZ=              0.0006   YZ=              0.0005

  Exact polarizability:     164.149       7.106     115.365       0.001      -0.001      63.068
 Approx polarizability:     194.269       5.811     160.661       0.001      -0.002      86.236

 Summary of Natural Population Analysis:

                                       Natural Population
                Natural  -----------------------------------------------
    Atom  No    Charge         Core      Valence    Rydberg      Total
 -----------------------------------------------------------------------
      C    1   -0.19221      1.99901     4.16716    0.02604     6.19221
      C    2   -0.15356      1.99924     4.13776    0.01657     6.15356
      C    3   -0.23951      1.99913     4.22386    0.01652     6.23951
      C    4    0.31533      1.99888     3.65928    0.02651     5.68467
      C    5   -0.12575      1.99910     4.10283    0.02382     6.12575
      C    6   -0.13963      1.99910     4.12147    0.01905     6.13963
      C    7    0.80668      1.99938     3.16049    0.03344     5.19332
      O    8   -0.44165      1.99974     6.41638    0.02553     8.44165
      C    9    0.14870      1.99910     3.82973    0.02247     5.85130
      C   10   -0.29545      1.99914     4.28045    0.01586     6.29545
      H   11    0.23574      0.00000     0.76124    0.00302     0.76426
      H   12    0.22780      0.00000     0.76899    0.00321     0.77220
      H   13    0.23114      0.00000     0.76577    0.00309     0.76886
      O   14   -0.60697      1.99977     6.57536    0.03185     8.60697
      O   15   -0.70421      1.99978     6.67964    0.02479     8.70421
      H   16    0.49803      0.00000     0.49861    0.00336     0.50197
      H   17    0.20256      0.00000     0.79413    0.00330     0.79744
      H   18    0.23296      0.00000     0.76425    0.00279     0.76704
 =======================================================================
   * Total *    0.00000     23.99139    59.70741    0.30121    84.00000

                      1                      2                      3
                      A                      A                      A
 Frequencies --     64.3525               107.7846               184.6584
 Red. masses --      9.3050                 6.4235                 6.6387
 Frc consts  --      0.0227                 0.0440                 0.1334
 IR Inten    --      0.8354                 0.2031                 0.7333

                      4                      5                      6
                      A                      A                      A
 Frequencies --    239.3855               299.0364               346.4098
 Red. masses --      4.1505                 5.4077                10.1673
 Frc consts  --      0.1401                 0.2849                 0.7188
 IR Inten    --      4.2146                 0.3066                 0.5901

                      7                      8                      9
                      A                      A                      A
 Frequencies --    394.9077               431.6085               514.8890
 Red. masses --      5.5674                 2.8322                 5.5612
 Frc consts  --      0.5116                 0.3109                 0.8686
 IR Inten    --      5.7282                12.9377                17.9452

                     10                     11                     12
                      A                      A                      A
 Frequencies --    561.4404               590.1494               606.5650
 Red. masses --      1.8632                 6.7483                 2.5810
 Frc consts  --      0.3460                 1.3847                 0.5595
 IR Inten    --     36.2358                15.3187                19.9414

                     13                     14                     15
                      A                      A                      A
 Frequencies --    627.5280               660.2358               759.5941
 Red. masses --      2.0917                 5.1399                 5.1916
 Frc consts  --      0.4853                 1.3201                 1.7649
 IR Inten    --     27.6656                47.7853                 6.5875

                     16                     17                     18
                      A                      A                      A
 Frequencies --    763.7240               795.4129               806.2471
 Red. masses --      2.1181                 1.9702                 5.2266
 Frc consts  --      0.7279                 0.7344                 2.0017
 IR Inten    --      0.0341               126.9332                 7.9578

                     19                     20                     21
                      A                      A                      A
 Frequencies --    807.7087               871.1785               906.0986
 Red. masses --      2.8118                 1.8019                 5.7427
 Frc consts  --      1.0808                 0.8058                 2.7779
 IR Inten    --      0.4152                 5.4008                 6.9338

                     22                     23                     24
                      A                      A                      A
 Frequencies --    919.6199               951.7910               951.8849
 Red. masses --      1.3660                 1.5461                 3.2239
 Frc consts  --      0.6807                 0.8252                 1.7211
 IR Inten    --      0.4302                 9.5347                 0.3477

                     25                     26                     27
                      A                      A                      A
 Frequencies --   1002.9800              1076.8401              1107.7183
 Red. masses --      1.3424                 1.7287                 2.6407
 Frc consts  --      0.7956                 1.1811                 1.9091
 IR Inten    --      0.0097                 7.0717                50.5198

                     28                     29                     30
                      A                      A                      A
 Frequencies --   1135.0483              1169.7491              1185.0716
 Red. masses --      1.5213                 1.9427                 1.9063
 Frc consts  --      1.1548                 1.5662                 1.5773
 IR Inten    --     69.0318                33.3456               155.8154

                     31                     32                     33
                      A                      A                      A
 Frequencies --   1226.6135              1287.4785              1309.6132
 Red. masses --      2.0313                 1.3609                 4.0093
 Frc consts  --      1.8007                 1.3291                 4.0514
 IR Inten    --    120.0491                 4.6730                51.6467

                     34                     35                     36
                      A                      A                      A
 Frequencies --   1362.1514              1376.0603              1401.9730
 Red. masses --      1.9794                 5.9238                 4.2275
 Frc consts  --      2.1639                 6.6089                 4.8957
 IR Inten    --      2.3344                36.8486               209.2687

                     37                     38                     39
                      A                      A                      A
 Frequencies --   1491.6485              1522.4095              1610.6408
 Red. masses --      4.4047                 3.6146                 5.1342
 Frc consts  --      5.7743                 4.9359                 7.8472
 IR Inten    --      9.9943                 4.4941                20.4957

                     40                     41                     42
                      A                      A                      A
 Frequencies --   1658.6636              1685.0457              1843.9742
 Red. masses --      7.5562                 7.5428                10.2974
 Frc consts  --     12.2482                12.6185                20.6293
 IR Inten    --     16.5731                12.8155               443.2582

                     43                     44                     45
                      A                      A                      A
 Frequencies --   3227.5996              3237.0334              3241.0859
 Red. masses --      1.0889                 1.0922                 1.0963
 Frc consts  --      6.6831                 6.7426                 6.7851
 IR Inten    --      1.3639                 0.1325                 1.5382

                     46                     47                     48
                      A                      A                      A
 Frequencies --   3281.1667              3303.0052              3821.4027
 Red. masses --      1.0908                 1.1081                 1.0646
 Frc consts  --      6.9189                 7.1230                 9.1598
 IR Inten    --      1.9291                 0.0118               131.5147

 - Thermochemistry -
 -------------------
 Temperature   298.150 Kelvin.  Pressure   1.00000 Atm.
 Atom     1 has atomic number  6 and mass  12.00000

 Molecular mass:   162.03169 amu.
 Principal axes and moments of inertia in atomic units:
                           1         2         3
     Eigenvalues --   669.859533048.983983718.84351
           X            0.99999   0.00384   0.00000
           Y           -0.00384   0.99999   0.00000
           Z            0.00000   0.00000   1.00000
 This molecule is an asymmetric top.
 Rotational symmetry number  1.
 Warning -- assumption of classical behavior for rotation
           may cause significant error
 Rotational temperatures (Kelvin)      0.12930     0.02841     0.02329
 Rotational constants (GHZ):           2.69421     0.59192     0.48530
 Zero-point vibrational energy     351266.6 (Joules/Mol)
                                   83.95472 (Kcal/Mol)
 Warning -- explicit consideration of  12 degrees of freedom as
           vibrations may cause significant error
 Vibrational temperatures:     92.59   155.08   265.68   344.42   430.25
          (Kelvin)            498.41   568.18   620.99   740.81   807.79
                              849.09   872.71   902.87   949.93  1092.89
                             1098.83  1144.42  1160.01  1162.11  1253.43
                             1303.67  1323.13  1369.41  1369.55  1443.06
                             1549.33  1593.76  1633.08  1683.01  1705.05
                             1764.82  1852.39  1884.24  1959.83  1979.84
                             2017.13  2146.15  2190.41  2317.35  2386.45
                             2424.40  2653.07  4643.80  4657.37  4663.20
                             4720.87  4752.29  5498.15

 Zero-point correction=                           0.133790 (Hartree/Particle)
 Thermal correction to Energy=                    0.142500
 Thermal correction to Enthalpy=                  0.143444
 Thermal correction to Gibbs Free Energy=         0.099334
 Sum of electronic and zero-point Energies=           -572.119179
 Sum of electronic and thermal Energies=              -572.110470
 Sum of electronic and thermal Enthalpies=            -572.109526
 Sum of electronic and thermal Free Energies=         -572.153635

                     E (Thermal)             CV                S
                      KCal/Mol        Cal/Mol-Kelvin    Cal/Mol-Kelvin
 Total                   89.420             34.448             92.837
 Electronic               0.000              0.000              0.000
 Translational            0.889              2.981             41.157
 Rotational               0.889              2.981             30.408
 Vibrational             87.642             28.486             21.272
 Vibration     1          0.597              1.971              4.319
 Vibration     2          0.606              1.943              3.308
 Vibration     3          0.631              1.861              2.281
 Vibration     4          0.657              1.780              1.807
 Vibration     5          0.692              1.675              1.422
 Vibration     6          0.724              1.583              1.182
 Vibration     7          0.762              1.481              0.982
 Vibration     8          0.793              1.401              0.853
 Vibration     9          0.870              1.217              0.622
 Vibration    10          0.917              1.115              0.521
 Vibration    11          0.947              1.053              0.467
 Vibration    12          0.965              1.018              0.439

 Optimization completed.
    -- Stationary point found.
 Normal termination of Gaussian 16 at Thu Apr 27 15:21:54 2023.
