 Gaussian 16, Revision C.01,
 Gaussian 16:  ES64L-G16RevC.01  3-Jul-2019

 ------------------------------------
 # opt freq M062x/aug-cc-pvtz pop=nbo
 ------------------------------------

 -----------------
 CYH-206-A_eq00000
 -----------------
 Symbolic Z-matrix:
 Charge =  0 Multiplicity = 1

 SCF Done:  E(RM062X) =  -625.328659312     A.U. after   14 cycles
 SCF Done:  E(RM062X) =  -625.329473208     A.U. after   12 cycles
 SCF Done:  E(RM062X) =  -625.329559992     A.U. after   12 cycles
 SCF Done:  E(RM062X) =  -625.328112818     A.U. after   12 cycles
 SCF Done:  E(RM062X) =  -625.329593673     A.U. after   10 cycles
 SCF Done:  E(RM062X) =  -625.329579904     A.U. after   10 cycles
 SCF Done:  E(RM062X) =  -625.329597807     A.U. after   10 cycles
 Optimization completed.
    -- Stationary point found.
 Normal termination of Gaussian 16 at Thu Apr 27 12:41:07 2023.

 ----------------------------------------------------------------------
 #N Geom=AllCheck Guess=TCheck SCRF=Check GenChk RM062X/Aug-CC-pVTZ Fre
 q
 ----------------------------------------------------------------------

 Structure from the checkpoint file:  "CYH-206-A_eq00000.chk"
 -----------------
 CYH-206-A_eq00000
 -----------------
 Charge =  0 Multiplicity = 1

                         Standard orientation:
 ---------------------------------------------------------------------
 Center     Atomic      Atomic             Coordinates (Angstroms)
 Number     Number       Type             X           Y           Z
 ---------------------------------------------------------------------
      1          6           0       -1.341011    0.034036    0.000058
      2          6           0       -0.669134   -1.183870    0.000151
      3          6           0        0.715614   -1.206063    0.000169
      4          6           0        1.390201    0.000547    0.000104
      5          6           0        0.745388    1.224791    0.000014
      6          6           0       -0.637693    1.234103   -0.000017
      7          6           0       -2.830240    0.105917    0.000045
      8          8           0       -3.457473    1.128392   -0.000111
      9          8           0       -3.411708   -1.105011   -0.000087
     10          7           0        2.869508   -0.018561    0.000155
     11          8           0        3.439798    1.048068    0.000029
     12          8           0        3.412462   -1.099579   -0.000374
     13          1           0       -1.228904   -2.106984    0.000212
     14          1           0        1.271963   -2.130363    0.000230
     15          1           0        1.324293    2.135149   -0.000029
     16          1           0       -1.189570    2.163107   -0.000092
     17          1           0       -4.367729   -0.962698   -0.000194
 ---------------------------------------------------------------------

 SCF Done:  E(RM062X) =  -625.329597807     A.U. after    1 cycles

 The electronic state is 1-A.
 Alpha  occ. eigenvalues --  -19.69768 -19.67799 -19.67789 -19.64198 -15.01559
 Alpha  occ. eigenvalues --  -10.70479 -10.62882 -10.59618 -10.58895 -10.58824
 Alpha  occ. eigenvalues --  -10.58770 -10.58541  -1.39035  -1.26669  -1.20352
 Alpha  occ. eigenvalues --   -1.17031  -1.02359  -0.93825  -0.89350  -0.83890
 Alpha  occ. eigenvalues --   -0.75589  -0.73869  -0.69471  -0.67279  -0.64663
 Alpha  occ. eigenvalues --   -0.63234  -0.62128  -0.60575  -0.56773  -0.56310
 Alpha  occ. eigenvalues --   -0.55362  -0.53619  -0.52632  -0.48479  -0.48413
 Alpha  occ. eigenvalues --   -0.44791  -0.42730  -0.40630  -0.39971  -0.39958
 Alpha  occ. eigenvalues --   -0.38679  -0.35868  -0.35253
 Alpha virt. eigenvalues --   -0.08041  -0.01863  -0.01502  -0.00907  -0.00100
 Alpha virt. eigenvalues --    0.00398   0.02192   0.02239   0.02638   0.03114
 Alpha virt. eigenvalues --    0.05085   0.05375   0.05479   0.06036   0.06497

 Mulliken charges:
               1
     1  C    1.670620
     2  C   -0.428660
     3  C   -0.461860
     4  C    0.801361
     5  C   -0.358799
     6  C   -0.781445
     7  C    0.428131
     8  O   -0.917758
     9  O   -0.544038
    10  N    0.750858
    11  O   -0.670715
    12  O   -0.666847
    13  H    0.088242
    14  H    0.368357
    15  H    0.377871
    16  H    0.040063
    17  H    0.304620
 Sum of Mulliken charges =   0.00000

 Dipole moment (field-independent basis, Debye):
    X=             -3.3614    Y=             -1.3744    Z=              0.0008  Tot=              3.6316
 Quadrupole moment (field-independent basis, Debye-Ang):
   XX=            -80.0642   YY=            -65.9798   ZZ=            -68.0092
   XY=              7.4168   XZ=              0.0024   YZ=             -0.0011

  Exact polarizability:     148.486      -1.247     110.943       0.000       0.000      57.420
 Approx polarizability:     163.658      -3.233     165.807       0.000       0.001      78.572

 Summary of Natural Population Analysis:

                                       Natural Population
                Natural  -----------------------------------------------
    Atom  No    Charge         Core      Valence    Rydberg      Total
 -----------------------------------------------------------------------
      C    1   -0.14811      1.99900     4.12286    0.02625     6.14811
      C    2   -0.17053      1.99923     4.15031    0.02099     6.17053
      C    3   -0.16866      1.99881     4.14884    0.02102     6.16866
      C    4    0.02852      1.99886     3.94024    0.03238     5.97148
      C    5   -0.13215      1.99881     4.11336    0.01998     6.13215
      C    6   -0.17098      1.99926     4.15050    0.02122     6.17098
      C    7    0.80155      1.99940     3.16598    0.03308     5.19845
      O    8   -0.58813      1.99977     6.55623    0.03212     8.58813
      O    9   -0.69636      1.99978     6.67164    0.02494     8.69636
      N   10    0.53440      1.99961     4.41468    0.05131     6.46560
      O   11   -0.37975      1.99982     6.35852    0.02141     8.37975
      O   12   -0.38116      1.99982     6.35992    0.02142     8.38116
      H   13    0.23702      0.00000     0.76025    0.00273     0.76298
      H   14    0.24834      0.00000     0.74772    0.00394     0.75166
      H   15    0.24200      0.00000     0.75280    0.00520     0.75800
      H   16    0.24144      0.00000     0.75487    0.00369     0.75856
      H   17    0.50261      0.00000     0.49417    0.00322     0.49739
 =======================================================================
   * Total *    0.00005     23.99216    61.66290    0.34489    85.99995

                      1                      2                      3
                      A                      A                      A
 Frequencies --     47.3252                68.2371                82.9006
 Red. masses --     13.5590                 6.0042                 8.4102
 Frc consts  --      0.0179                 0.0165                 0.0341
 IR Inten    --      0.6074                 0.5762                 2.2876

                      4                      5                      6
                      A                      A                      A
 Frequencies --    165.4122               250.5743               285.7287
 Red. masses --      9.0648                 6.3166                 6.8821
 Frc consts  --      0.1461                 0.2337                 0.3310
 IR Inten    --      2.2916                 3.4151                 2.3891

                      7                      8                      9
                      A                      A                      A
 Frequencies --    300.4329               413.6418               457.9274
 Red. masses --     12.6328                 2.8539                 3.2502
 Frc consts  --      0.6718                 0.2877                 0.4016
 IR Inten    --      0.1985                 0.1858                12.0794

                     10                     11                     12
                      A                      A                      A
 Frequencies --    488.5837               518.6665               551.1104
 Red. masses --      8.1255                 8.2906                 6.1373
 Frc consts  --      1.1428                 1.3140                 1.0983
 IR Inten    --     11.5003                22.9418                 0.5105

                     13                     14                     15
                      A                      A                      A
 Frequencies --    591.7588               639.7910               680.7834
 Red. masses --      1.2479                 7.1305                 4.7372
 Frc consts  --      0.2575                 1.7197                 1.2936
 IR Inten    --     62.0467                 0.2260                29.2511

                     16                     17                     18
                      A                      A                      A
 Frequencies --    687.7523               758.1292               794.6881
 Red. masses --      3.7428                 2.8118                 5.3533
 Frc consts  --      1.0431                 0.9522                 1.9919
 IR Inten    --      7.8120               108.6837                46.4935

                     19                     20                     21
                      A                      A                      A
 Frequencies --    824.8216               874.2296               897.5232
 Red. masses --      6.9564                 1.2467                10.3206
 Frc consts  --      2.7884                 0.5614                 4.8983
 IR Inten    --      3.4814                 0.0052                37.8891

                     22                     23                     24
                      A                      A                      A
 Frequencies --    920.0203              1014.6142              1023.4419
 Red. masses --      2.0531                 1.3626                 1.3716
 Frc consts  --      1.0239                 0.8265                 0.8465
 IR Inten    --     14.6002                 0.0939                 0.0010

                     25                     26                     27
                      A                      A                      A
 Frequencies --   1038.7678              1122.7835              1139.4628
 Red. masses --      2.9358                 1.3530                 2.5642
 Frc consts  --      1.8664                 1.0049                 1.9616
 IR Inten    --      9.4058                27.8619                21.7080

                     28                     29                     30
                      A                      A                      A
 Frequencies --   1145.1752              1196.3960              1220.5392
 Red. masses --      3.7092                 1.3134                 1.8074
 Frc consts  --      2.8660                 1.1076                 1.5864
 IR Inten    --     69.7162                67.7552               181.7519

                     31                     32                     33
                      A                      A                      A
 Frequencies --   1320.4518              1347.0548              1396.6051
 Red. masses --      1.3264                 6.2468                 2.9856
 Frc consts  --      1.3626                 6.6784                 3.4311
 IR Inten    --      2.4969                30.7395               203.1855

                     34                     35                     36
                      A                      A                      A
 Frequencies --   1455.9515              1462.5400              1541.3473
 Red. masses --      4.1122                11.9619                 2.6566
 Frc consts  --      5.1359                15.0753                 3.7186
 IR Inten    --     72.6237               174.2994                 2.2913

                     37                     38                     39
                      A                      A                      A
 Frequencies --   1652.8167              1676.7087              1706.0141
 Red. masses --      9.9404                 6.3417                10.8800
 Frc consts  --     15.9994                10.5044                18.6571
 IR Inten    --    136.8842                 9.0602               204.9528

                     40                     41                     42
                      A                      A                      A
 Frequencies --   1857.0969              3232.0551              3240.5987
 Red. masses --     10.6552                 1.0910                 1.0902
 Frc consts  --     21.6511                 6.7148                 6.7452
 IR Inten    --    370.6431                 2.6819                 1.3288

                     43                     44                     45
                      A                      A                      A
 Frequencies --   3254.7231              3255.7463              3813.1215
 Red. masses --      1.0941                 1.0951                 1.0647
 Frc consts  --      6.8289                 6.8395                 9.1206
 IR Inten    --      5.3347                 3.5348               145.9400

 - Thermochemistry -
 -------------------
 Temperature   298.150 Kelvin.  Pressure   1.00000 Atm.
 Atom     1 has atomic number  6 and mass  12.00000

 Molecular mass:   167.02186 amu.
 Principal axes and moments of inertia in atomic units:
                           1         2         3
     Eigenvalues --   595.567723776.930164372.49785
           X            0.99999   0.00486   0.00000
           Y           -0.00486   0.99999  -0.00001
           Z            0.00000   0.00001   1.00000
 This molecule is an asymmetric top.
 Rotational symmetry number  1.
 Warning -- assumption of classical behavior for rotation
           may cause significant error
 Rotational temperatures (Kelvin)      0.14543     0.02293     0.01981
 Rotational constants (GHZ):           3.03029     0.47783     0.41275
 Zero-point vibrational energy     313505.6 (Joules/Mol)
                                   74.92965 (Kcal/Mol)
 Warning -- explicit consideration of  13 degrees of freedom as
           vibrations may cause significant error
 Vibrational temperatures:     68.09    98.18   119.28   237.99   360.52
          (Kelvin)            411.10   432.26   595.14   658.86   702.96
                              746.25   792.93   851.41   920.52   979.50
                              989.52  1090.78  1143.38  1186.73  1257.82
                             1291.34  1323.70  1459.80  1472.50  1494.56
                             1615.43  1639.43  1647.65  1721.35  1756.08
                             1899.84  1938.11  2009.40  2094.79  2104.27
                             2217.66  2378.03  2412.41  2454.57  2671.95
                             4650.21  4662.50  4682.82  4684.29  5486.23

 Zero-point correction=                           0.119408 (Hartree/Particle)
 Thermal correction to Energy=                    0.128990
 Thermal correction to Enthalpy=                  0.129934
 Thermal correction to Gibbs Free Energy=         0.083036
 Sum of electronic and zero-point Energies=           -625.210190
 Sum of electronic and thermal Energies=              -625.200608
 Sum of electronic and thermal Enthalpies=            -625.199664
 Sum of electronic and thermal Free Energies=         -625.246561

                     E (Thermal)             CV                S
                      KCal/Mol        Cal/Mol-Kelvin    Cal/Mol-Kelvin
 Total                   80.942             35.469             98.705
 Electronic               0.000              0.000              0.000
 Translational            0.889              2.981             41.247
 Rotational               0.889              2.981             30.665
 Vibrational             79.165             29.508             26.793
 Vibration     1          0.595              1.979              4.926
 Vibration     2          0.598              1.969              4.204
 Vibration     3          0.600              1.961              3.821
 Vibration     4          0.624              1.885              2.487
 Vibration     5          0.663              1.762              1.727
 Vibration     6          0.684              1.700              1.499
 Vibration     7          0.693              1.673              1.414
 Vibration     8          0.777              1.441              0.914
 Vibration     9          0.816              1.343              0.772
 Vibration    10          0.844              1.275              0.687
 Vibration    11          0.874              1.209              0.613
 Vibration    12          0.906              1.137              0.542
 Vibration    13          0.949              1.049              0.464

 Optimization completed.
    -- Stationary point found.
 Normal termination of Gaussian 16 at Thu Apr 27 13:31:46 2023.
