 Gaussian 16, Revision C.01,
 Gaussian 16:  ES64L-G16RevC.01  3-Jul-2019

 ------------------------------------------
 # opt=tight freq M062x/aug-cc-pvtz pop=nbo
 ------------------------------------------

 -------------------
 CYH-209-A_eq00001_2
 -------------------
 Symbolic Z-matrix:
 Charge =  0 Multiplicity = 1

 SCF Done:  E(RM062X) =  -757.906275248     A.U. after   13 cycles
 SCF Done:  E(RM062X) =  -757.906275279     A.U. after    6 cycles
 SCF Done:  E(RM062X) =  -757.906275293     A.U. after    6 cycles
 SCF Done:  E(RM062X) =  -757.906275305     A.U. after    7 cycles
 SCF Done:  E(RM062X) =  -757.906275307     A.U. after    8 cycles
 SCF Done:  E(RM062X) =  -757.906275361     A.U. after    6 cycles
 SCF Done:  E(RM062X) =  -757.906276536     A.U. after   10 cycles
 SCF Done:  E(RM062X) =  -757.874358780     A.U. after   13 cycles
 SCF Done:  E(RM062X) =  -757.906281407     A.U. after   12 cycles
 SCF Done:  E(RM062X) =  -757.906281138     A.U. after   13 cycles
 SCF Done:  E(RM062X) =  -757.906298500     A.U. after    8 cycles
 SCF Done:  E(RM062X) =  -757.906298600     A.U. after    7 cycles
 SCF Done:  E(RM062X) =  -757.906298666     A.U. after    7 cycles
 SCF Done:  E(RM062X) =  -757.906298679     A.U. after    6 cycles
 SCF Done:  E(RM062X) =  -757.906298682     A.U. after    5 cycles
 SCF Done:  E(RM062X) =  -757.906298683     A.U. after    5 cycles
 SCF Done:  E(RM062X) =  -757.906298683     A.U. after    5 cycles
 SCF Done:  E(RM062X) =  -757.906298683     A.U. after    4 cycles
 SCF Done:  E(RM062X) =  -757.906298683     A.U. after    4 cycles
 Optimization completed on the basis of negligible forces.
    -- Stationary point found.
 Normal termination of Gaussian 16 at Thu May 11 20:31:17 2023.

 ----------------------------------------------------------------------
 #N Geom=AllCheck Guess=TCheck SCRF=Check GenChk RM062X/Aug-CC-pVTZ Fre
 q
 ----------------------------------------------------------------------

 Structure from the checkpoint file:  "CYH-209-A_eq00001_2.chk"
 -------------------
 CYH-209-A_eq00001_2
 -------------------
 Charge =  0 Multiplicity = 1

                         Standard orientation:
 ---------------------------------------------------------------------
 Center     Atomic      Atomic             Coordinates (Angstroms)
 Number     Number       Type             X           Y           Z
 ---------------------------------------------------------------------
      1          6           0       -1.705646    0.039858    0.000001
      2          6           0       -1.019214   -1.171318    0.000002
      3          6           0        0.363722   -1.172790    0.000003
      4          6           0        1.051458    0.034326    0.000004
      5          6           0        0.373257    1.243034    0.000004
      6          6           0       -1.012352    1.242900    0.000002
      7          6           0       -3.193597    0.096934   -0.000001
      8          8           0       -3.834775    1.111436   -0.000003
      9          8           0       -3.764939   -1.120418   -0.000001
     10          9           0        3.099776    1.210781    0.000051
     11          6           0        2.554500   -0.008037    0.000000
     12          9           0        3.025253   -0.655798   -1.074848
     13          9           0        3.025258   -0.655890    1.074789
     14          1           0       -1.569241   -2.100484    0.000001
     15          1           0        0.912200   -2.105046    0.000005
     16          1           0        0.923018    2.172570    0.000005
     17          1           0       -1.571977    2.167500    0.000002
     18          1           0       -4.721640   -0.983958   -0.000002
 ---------------------------------------------------------------------

 SCF Done:  E(RM062X) =  -757.906298683     A.U. after    1 cycles

 The electronic state is 1-A.
 Alpha  occ. eigenvalues --  -25.28995 -25.28564 -25.28563 -19.69084 -19.63468
 Alpha  occ. eigenvalues --  -10.80850 -10.69743 -10.59227 -10.58524 -10.57922
 Alpha  occ. eigenvalues --  -10.57830 -10.57810 -10.57590  -1.47832  -1.38704
 Alpha  occ. eigenvalues --   -1.38251  -1.25950  -1.16281  -1.00938  -0.92155
 Alpha  occ. eigenvalues --   -0.88294  -0.83520  -0.77402  -0.73921  -0.71294
 Alpha  occ. eigenvalues --   -0.70169  -0.69470  -0.67310  -0.62825  -0.60131
 Alpha  occ. eigenvalues --   -0.58480  -0.58471  -0.56047  -0.55693  -0.55203
 Alpha  occ. eigenvalues --   -0.54337  -0.54174  -0.53268  -0.52319  -0.51994
 Alpha  occ. eigenvalues --   -0.49159  -0.47388  -0.44971  -0.43723  -0.42039
 Alpha  occ. eigenvalues --   -0.37964  -0.34842  -0.34294
 Alpha virt. eigenvalues --   -0.04828  -0.01178  -0.01056   0.00029   0.00479
 Alpha virt. eigenvalues --    0.02039   0.02478   0.02578   0.03533   0.04010
 Alpha virt. eigenvalues --    0.04532   0.05531   0.05707   0.06165   0.06481

 Mulliken charges:
               1
     1  C    1.921390
     2  C   -0.584105
     3  C   -0.654200
     4  C    1.257569
     5  C   -0.485795
     6  C   -0.889792
     7  C    0.430047
     8  O   -0.924593
     9  O   -0.538940
    10  F   -0.309915
    11  C    0.562114
    12  F   -0.322616
    13  F   -0.322620
    14  H    0.085105
    15  H    0.293904
    16  H    0.094604
    17  H    0.086162
    18  H    0.301681
 Sum of Mulliken charges =   0.00000

 Dipole moment (field-independent basis, Debye):
    X=             -1.5194    Y=             -1.3032    Z=              0.0000  Tot=              2.0018
 Quadrupole moment (field-independent basis, Debye-Ang):
   XX=            -76.3310   YY=            -69.0096   ZZ=            -74.7178
   XY=              8.0405   XZ=              0.0000   YZ=              0.0000

  Exact polarizability:     137.310      -1.231     103.914       0.000       0.000      62.535
 Approx polarizability:     151.468      -3.431     144.924       0.000       0.000      83.917

 Summary of Natural Population Analysis:

                                       Natural Population
                Natural  -----------------------------------------------
    Atom  No    Charge         Core      Valence    Rydberg      Total
 -----------------------------------------------------------------------
      C    1   -0.15913      1.99899     4.13465    0.02549     6.15913
      C    2   -0.16141      1.99921     4.14270    0.01950     6.16141
      C    3   -0.18019      1.99918     4.16443    0.01658     6.18019
      C    4   -0.12384      1.99901     4.09848    0.02636     6.12384
      C    5   -0.18344      1.99918     4.16799    0.01628     6.18344
      C    6   -0.15025      1.99921     4.13147    0.01958     6.15025
      C    7    0.80400      1.99939     3.16388    0.03273     5.19600
      O    8   -0.59322      1.99977     6.56171    0.03174     8.59322
      O    9   -0.69813      1.99978     6.67348    0.02486     8.69813
      F   10   -0.34093      1.99992     7.33405    0.00696     9.34093
      C   11    1.03926      1.99922     2.91126    0.05025     4.96074
      F   12   -0.34302      1.99993     7.33613    0.00696     9.34302
      F   13   -0.34302      1.99993     7.33613    0.00696     9.34302
      H   14    0.23379      0.00000     0.76335    0.00285     0.76621
      H   15    0.22716      0.00000     0.76988    0.00296     0.77284
      H   16    0.23231      0.00000     0.76492    0.00277     0.76769
      H   17    0.23890      0.00000     0.75828    0.00282     0.76110
      H   18    0.50114      0.00000     0.49563    0.00323     0.49886
 =======================================================================
   * Total *    0.00000     25.99272    69.70841    0.29887    96.00000

                      1                      2                      3
                      A                      A                      A
 Frequencies --      7.5882                63.0371                72.5781
 Red. masses --      8.3367                 6.8963                 9.3755
 Frc consts  --      0.0003                 0.0161                 0.0291
 IR Inten    --      0.4320                 0.7454                 0.8288

                      4                      5                      6
                      A                      A                      A
 Frequencies --    142.1365               196.9268               242.6934
 Red. masses --      9.9006                 8.2957                 7.7607
 Frc consts  --      0.1178                 0.1895                 0.2693
 IR Inten    --      1.6999                 0.2244                 0.5815

                      7                      8                      9
                      A                      A                      A
 Frequencies --    265.2198               357.7126               404.1153
 Red. masses --     11.7547                 5.7491                10.2288
 Frc consts  --      0.4872                 0.4334                 0.9842
 IR Inten    --      1.1850                 4.4680                 3.1526

                     10                     11                     12
                      A                      A                      A
 Frequencies --    410.1753               477.8934               493.8316
 Red. masses --      2.8545                 6.9772                 5.1170
 Frc consts  --      0.2830                 0.9388                 0.7352
 IR Inten    --      0.5088                31.8274                 7.3628

                     13                     14                     15
                      A                      A                      A
 Frequencies --    509.8996               582.0009               591.2272
 Red. masses --      7.7925                 1.8420                11.0867
 Frc consts  --      1.1937                 0.3676                 2.2833
 IR Inten    --      3.9797                60.4954                 0.5877

                     16                     17                     18
                      A                      A                      A
 Frequencies --    614.1945               644.5030               666.9811
 Red. masses --      2.0883                 7.2037                 5.2788
 Frc consts  --      0.4641                 1.7630                 1.3836
 IR Inten    --      8.2442                 0.3104                17.4095

                     19                     20                     21
                      A                      A                      A
 Frequencies --    728.8902               758.1996               805.1887
 Red. masses --      3.1887                 7.1009                 4.1805
 Frc consts  --      0.9981                 2.4051                 1.5969
 IR Inten    --     55.1636                48.3880                47.4140

                     22                     23                     24
                      A                      A                      A
 Frequencies --    827.6800               877.5469               902.8541
 Red. masses --      6.7745                 1.2799                 1.8834
 Frc consts  --      2.7344                 0.5807                 0.9045
 IR Inten    --      5.2396                 0.4242                23.9275

                     25                     26                     27
                      A                      A                      A
 Frequencies --   1009.7167              1023.2546              1039.9194
 Red. masses --      1.3658                 1.3738                 3.6081
 Frc consts  --      0.8204                 0.8475                 2.2989
 IR Inten    --      0.0869                 0.0987                32.4123

                     28                     29                     30
                      A                      A                      A
 Frequencies --   1107.4415              1130.5779              1143.9298
 Red. masses --      4.1581                 1.6734                 2.6853
 Frc consts  --      3.0046                 1.2602                 2.0703
 IR Inten    --     82.1774                82.9067                41.3698

                     31                     32                     33
                      A                      A                      A
 Frequencies --   1201.2120              1203.7236              1222.8275
 Red. masses --      1.2416                12.8302                 1.5776
 Frc consts  --      1.0555                10.9531                 1.3899
 IR Inten    --     95.5107               257.0448               176.6983

                     34                     35                     36
                      A                      A                      A
 Frequencies --   1230.6136              1334.9145              1339.0175
 Red. masses --      8.2663                 1.6606                 3.2291
 Frc consts  --      7.3758                 1.7435                 3.4112
 IR Inten    --    172.4640                 0.0880                15.6381

                     37                     38                     39
                      A                      A                      A
 Frequencies --   1364.2929              1400.9379              1456.5718
 Red. masses --      4.2641                 3.6406                 3.4399
 Frc consts  --      4.6762                 4.2097                 4.2999
 IR Inten    --    447.6624                45.7738                46.8164

                     40                     41                     42
                      A                      A                      A
 Frequencies --   1565.8777              1658.1970              1694.8180
 Red. masses --      2.8678                 7.6964                 6.2898
 Frc consts  --      4.1430                12.4684                10.6447
 IR Inten    --     18.7565                 6.9373                 0.7743

                     43                     44                     45
                      A                      A                      A
 Frequencies --   1854.4193              3214.9668              3227.0688
 Red. masses --     10.5596                 1.0908                 1.0894
 Frc consts  --     21.3951                 6.6428                 6.6845
 IR Inten    --    375.6318                 0.1546                 1.1604

                     46                     47                     48
                      A                      A                      A
 Frequencies --   3240.4838              3242.4841              3815.1086
 Red. masses --      1.0949                 1.0943                 1.0646
 Frc consts  --      6.7737                 6.7785                 9.1299
 IR Inten    --      0.1232                 0.5053               137.6287

 - Thermochemistry -
 -------------------
 Temperature   298.150 Kelvin.  Pressure   1.00000 Atm.
 Atom     1 has atomic number  6 and mass  12.00000

 Molecular mass:   190.02416 amu.
 Principal axes and moments of inertia in atomic units:
                           1         2         3
     Eigenvalues --   776.631034788.723905251.84936
           X            0.99999   0.00432   0.00000
           Y           -0.00432   0.99999   0.00000
           Z            0.00000   0.00000   1.00000
 This molecule is an asymmetric top.
 Rotational symmetry number  1.
 Warning -- assumption of classical behavior for rotation
           may cause significant error
 Rotational temperatures (Kelvin)      0.11153     0.01809     0.01649
 Rotational constants (GHZ):           2.32381     0.37687     0.34364
 Zero-point vibrational energy     319196.3 (Joules/Mol)
                                   76.28974 (Kcal/Mol)
 Warning -- explicit consideration of  16 degrees of freedom as
           vibrations may cause significant error
 Vibrational temperatures:     10.92    90.70   104.42   204.50   283.33
          (Kelvin)            349.18   381.59   514.67   581.43   590.15
                              687.58   710.51   733.63   837.37   850.64
                              883.69   927.30   959.64  1048.71  1090.88
                             1158.49  1190.85  1262.59  1299.01  1452.76
                             1472.24  1496.21  1593.36  1626.65  1645.86
                             1728.28  1731.89  1759.38  1770.58  1920.64
                             1926.55  1962.91  2015.64  2095.68  2252.95
                             2385.78  2438.47  2668.10  4625.62  4643.03
                             4662.33  4665.21  5489.09

 Zero-point correction=                           0.121575 (Hartree/Particle)
 Thermal correction to Energy=                    0.132246
 Thermal correction to Enthalpy=                  0.133191
 Thermal correction to Gibbs Free Energy=         0.082184
 Sum of electronic and zero-point Energies=           -757.784723
 Sum of electronic and thermal Energies=              -757.774052
 Sum of electronic and thermal Enthalpies=            -757.773108
 Sum of electronic and thermal Free Energies=         -757.824115

                     E (Thermal)             CV                S
                      KCal/Mol        Cal/Mol-Kelvin    Cal/Mol-Kelvin
 Total                   82.986             39.487            107.353
 Electronic               0.000              0.000              0.000
 Translational            0.889              2.981             41.632
 Rotational               0.889              2.981             31.347
 Vibrational             81.208             33.525             34.375
 Vibration     1          0.593              1.987              8.559
 Vibration     2          0.597              1.972              4.360
 Vibration     3          0.599              1.967              4.082
 Vibration     4          0.616              1.911              2.775
 Vibration     5          0.636              1.844              2.162
 Vibration     6          0.659              1.775              1.783
 Vibration     7          0.671              1.737              1.627
 Vibration     8          0.733              1.559              1.132
 Vibration     9          0.769              1.461              0.948
 Vibration    10          0.774              1.448              0.926
 Vibration    11          0.834              1.299              0.716
 Vibration    12          0.849              1.264              0.674
 Vibration    13          0.865              1.228              0.634
 Vibration    14          0.939              1.070              0.482
 Vibration    15          0.949              1.050              0.465
 Vibration    16          0.974              1.002              0.426

                           ! Non-Optimized Parameters !
 Normal termination of Gaussian 16 at Thu May 11 21:27:02 2023.
