 Gaussian 16, Revision C.01,
 Gaussian 16:  ES64L-G16RevC.01  3-Jul-2019

 ------------------------------------------
 # opt=tight freq aug-cc-pvtz pop=nbo m062x
 ------------------------------------------

 -------------------
 CYH-243-A_eq00002_2
 -------------------
 Symbolic Z-matrix:
 Charge =  0 Multiplicity = 1

 SCF Done:  E(RM062X) =  -833.133182481     A.U. after   13 cycles
 SCF Done:  E(RM062X) =  -833.135957580     A.U. after   12 cycles
 SCF Done:  E(RM062X) =  -833.136583634     A.U. after   12 cycles
 SCF Done:  E(RM062X) =  -833.136218243     A.U. after   12 cycles
 SCF Done:  E(RM062X) =  -833.136714269     A.U. after   11 cycles
 SCF Done:  E(RM062X) =  -833.136717667     A.U. after    9 cycles
 SCF Done:  E(RM062X) =  -833.136718697     A.U. after    8 cycles
 SCF Done:  E(RM062X) =  -833.136718796     A.U. after    7 cycles
 SCF Done:  E(RM062X) =  -833.136718814     A.U. after    5 cycles
 SCF Done:  E(RM062X) =  -833.136718851     A.U. after    7 cycles
 SCF Done:  E(RM062X) =  -833.136718863     A.U. after    6 cycles
 SCF Done:  E(RM062X) =  -833.136718867     A.U. after    5 cycles
 SCF Done:  E(RM062X) =  -833.136718868     A.U. after    4 cycles
 Optimization completed.
    -- Stationary point found.
 Normal termination of Gaussian 16 at Thu May 11 18:15:39 2023.

 ----------------------------------------------------------------------
 #N Geom=AllCheck Guess=TCheck SCRF=Check GenChk RM062X/Aug-CC-pVTZ Fre
 q
 ----------------------------------------------------------------------

 Structure from the checkpoint file:  "CYH-243-A_eq00002_2.chk"
 -------------------
 CYH-243-A_eq00002_2
 -------------------
 Charge =  0 Multiplicity = 1

                         Standard orientation:
 ---------------------------------------------------------------------
 Center     Atomic      Atomic             Coordinates (Angstroms)
 Number     Number       Type             X           Y           Z
 ---------------------------------------------------------------------
      1          6           0       -2.094520    0.080361   -0.000004
      2          6           0       -1.218132   -0.996248   -0.000020
      3          6           0        0.153649   -0.792561   -0.000025
      4          6           0        0.629208    0.509798   -0.000011
      5          6           0       -0.233494    1.597940    0.000002
      6          6           0       -1.595135    1.379981    0.000005
      7          6           0       -3.566416   -0.102434    0.000000
      8          8           0        1.970350    0.853222   -0.000024
      9          8           0       -4.366071    0.794037   -0.000010
     10          8           0       -3.936795   -1.397043    0.000027
     11          9           0        2.864789   -0.882877    1.075014
     12          6           0        2.927988   -0.095201    0.000005
     13          9           0        4.096695    0.516939    0.000010
     14          9           0        2.864814   -0.882910   -1.074983
     15          1           0       -1.607608   -2.003599   -0.000034
     16          1           0        0.822542   -1.638202   -0.000041
     17          1           0        0.183082    2.594634    0.000007
     18          1           0       -2.290608    2.207373    0.000015
     19          1           0       -4.902842   -1.412119    0.000034
 ---------------------------------------------------------------------

 SCF Done:  E(RM062X) =  -833.136718868     A.U. after    1 cycles

 The electronic state is 1-A.
 Alpha  occ. eigenvalues --  -25.30424 -25.30356 -25.30355 -19.71634 -19.68496
 Alpha  occ. eigenvalues --  -19.62811 -10.86945 -10.69137 -10.64816 -10.57719
 Alpha  occ. eigenvalues --  -10.57521 -10.57375 -10.57364 -10.57022  -1.50801
 Alpha  occ. eigenvalues --   -1.40819  -1.40456  -1.26119  -1.25318  -1.15615
 Alpha  occ. eigenvalues --   -1.00260  -0.91074  -0.88254  -0.83975  -0.78375
 Alpha  occ. eigenvalues --   -0.74968  -0.73375  -0.73240  -0.71563  -0.67574
 Alpha  occ. eigenvalues --   -0.62886  -0.61560  -0.60761  -0.59766  -0.58492
 Alpha  occ. eigenvalues --   -0.57151  -0.56731  -0.55608  -0.55453  -0.54357
 Alpha  occ. eigenvalues --   -0.54054  -0.52299  -0.52087  -0.50909  -0.49650
 Alpha  occ. eigenvalues --   -0.47019  -0.45125  -0.43218  -0.41377  -0.37412
 Alpha  occ. eigenvalues --   -0.34160  -0.32519
 Alpha virt. eigenvalues --   -0.03350  -0.01010  -0.00771  -0.00005   0.00505
 Alpha virt. eigenvalues --    0.01777   0.02451   0.02568   0.03425   0.03811
 Alpha virt. eigenvalues --    0.04185   0.05511   0.05710   0.06006   0.06692

 Mulliken charges:
               1
     1  C    1.763808
     2  C   -0.601045
     3  C   -0.230821
     4  C    0.981072
     5  C   -0.349332
     6  C   -0.866637
     7  C    0.441628
     8  O   -0.721858
     9  O   -0.925996
    10  O   -0.537132
    11  F   -0.272481
    12  C    0.741741
    13  F   -0.269012
    14  F   -0.272478
    15  H    0.029868
    16  H    0.384180
    17  H    0.419924
    18  H   -0.013513
    19  H    0.298081
 Sum of Mulliken charges =   0.00000

 Dipole moment (field-independent basis, Debye):
    X=             -0.3277    Y=             -1.1417    Z=              0.0000  Tot=              1.1878
 Quadrupole moment (field-independent basis, Debye-Ang):
   XX=            -83.5777   YY=            -73.0424   ZZ=            -79.7033
   XY=              7.8006   XZ=             -0.0002   YZ=              0.0001

  Exact polarizability:     150.503       1.046     106.345       0.000       0.000      64.937
 Approx polarizability:     164.274      -1.354     146.370       0.000       0.000      86.880

 Summary of Natural Population Analysis:

                                       Natural Population
                Natural  -----------------------------------------------
    Atom  No    Charge         Core      Valence    Rydberg      Total
 -----------------------------------------------------------------------
      C    1   -0.20365      1.99901     4.17540    0.02924     6.20365
      C    2   -0.13933      1.99922     4.11914    0.02097     6.13933
      C    3   -0.28359      1.99915     4.26582    0.01861     6.28359
      C    4    0.35222      1.99881     3.62482    0.02416     5.64778
      C    5   -0.26122      1.99921     4.23880    0.02321     6.26122
      C    6   -0.11431      1.99888     4.09429    0.02114     6.11431
      C    7    0.80547      1.99939     3.16184    0.03331     5.19453
      O    8   -0.53272      1.99968     6.49755    0.03549     8.53272
      O    9   -0.60103      1.99977     6.56922    0.03204     8.60103
      O   10   -0.70108      1.99978     6.67636    0.02494     8.70108
      F   11   -0.33906      1.99992     7.32834    0.01081     9.33906
      C   12    1.24413      1.99968     2.69997    0.05622     4.75587
      F   13   -0.31662      1.99991     7.30620    0.01051     9.31662
      F   14   -0.33907      1.99992     7.32834    0.01081     9.33907
      H   15    0.23211      0.00000     0.76411    0.00378     0.76789
      H   16    0.23246      0.00000     0.76351    0.00403     0.76754
      H   17    0.22991      0.00000     0.76610    0.00399     0.77009
      H   18    0.23555      0.00000     0.76057    0.00388     0.76445
      H   19    0.49987      0.00000     0.49680    0.00333     0.50013
 =======================================================================
   * Total *    0.00005     27.99232    75.63718    0.37045   103.99995

                      1                      2                      3
                      A                      A                      A
 Frequencies --     31.2983                60.4310                82.1678
 Red. masses --      9.8312                10.7139                 6.6555
 Frc consts  --      0.0057                 0.0231                 0.0265
 IR Inten    --      0.4603                 0.6528                 0.5888

                      4                      5                      6
                      A                      A                      A
 Frequencies --    117.5267               125.9337               203.2948
 Red. masses --     10.8821                 8.7612                 9.1965
 Frc consts  --      0.0886                 0.0819                 0.2239
 IR Inten    --      1.1672                 0.1372                 0.1537

                      7                      8                      9
                      A                      A                      A
 Frequencies --    283.0517               287.7714               347.4835
 Red. masses --     11.0491                 6.1694                 7.3394
 Frc consts  --      0.5216                 0.3010                 0.5221
 IR Inten    --      1.3273                 2.0585                 2.7560

                     10                     11                     12
                      A                      A                      A
 Frequencies --    420.5177               439.5682               448.7122
 Red. masses --      2.9577                10.9795                 9.1962
 Frc consts  --      0.3082                 1.2499                 1.0909
 IR Inten    --      0.0789                 2.1639                20.1608

                     13                     14                     15
                      A                      A                      A
 Frequencies --    504.9070               515.0097               554.5388
 Red. masses --      7.0656                 2.9342                11.1528
 Frc consts  --      1.0613                 0.4585                 2.0207
 IR Inten    --      6.5873                25.4553                 8.4898

                     16                     17                     18
                      A                      A                      A
 Frequencies --    598.0330               628.4171               635.5650
 Red. masses --      1.2237                15.1284                 7.3614
 Frc consts  --      0.2579                 3.5200                 1.7520
 IR Inten    --     51.1679                 2.6857                 0.6529

                     19                     20                     21
                      A                      A                      A
 Frequencies --    653.3708               708.5032               716.7418
 Red. masses --      6.1186                 3.3343                10.3750
 Frc consts  --      1.5389                 0.9861                 3.1402
 IR Inten    --     30.0932                26.6317                19.5689

                     22                     23                     24
                      A                      A                      A
 Frequencies --    772.0867               797.8818               851.4617
 Red. masses --      5.4780                 4.0652                 8.1129
 Frc consts  --      1.9240                 1.5248                 3.4654
 IR Inten    --     12.3876                68.8708                19.7717

                     25                     26                     27
                      A                      A                      A
 Frequencies --    858.6003               894.2782               965.5577
 Red. masses --      1.2650                 1.8501                10.9767
 Frc consts  --      0.5494                 0.8717                 6.0295
 IR Inten    --      0.0258                22.3584                11.9097

                     28                     29                     30
                      A                      A                      A
 Frequencies --   1001.1472              1018.1150              1041.7777
 Red. masses --      1.3649                 1.3533                 2.7714
 Frc consts  --      0.8060                 0.8265                 1.7722
 IR Inten    --      0.5566                 0.0079                 8.4050

                     31                     32                     33
                      A                      A                      A
 Frequencies --   1131.7282              1145.5732              1199.9431
 Red. masses --      2.0145                 1.8824                 1.2554
 Frc consts  --      1.5202                 1.4554                 1.0650
 IR Inten    --    114.2631                15.5243               153.4386

                     34                     35                     36
                      A                      A                      A
 Frequencies --   1225.3124              1233.1894              1268.0142
 Red. masses --      1.5806                12.7227                 6.3321
 Frc consts  --      1.3982                11.3996                 5.9986
 IR Inten    --    145.9083               330.4711               417.9400

                     37                     38                     39
                      A                      A                      A
 Frequencies --   1277.6930              1313.7522              1343.0039
 Red. masses --      4.6743                 6.9802                 1.5637
 Frc consts  --      4.4960                 7.0981                 1.6617
 IR Inten    --     61.2906               555.1428                33.3857

                     40                     41                     42
                      A                      A                      A
 Frequencies --   1349.6936              1397.3641              1471.6164
 Red. masses --      8.0105                 3.0112                 3.4570
 Frc consts  --      8.5977                 3.4643                 4.4110
 IR Inten    --    507.3234               125.8997                17.4979

                     43                     44                     45
                      A                      A                      A
 Frequencies --   1562.0467              1662.9177              1684.1381
 Red. masses --      2.8157                 7.6947                 6.3596
 Frc consts  --      4.0478                12.5367                10.6277
 IR Inten    --     48.9045                32.6361                77.3351

                     46                     47                     48
                      A                      A                      A
 Frequencies --   1848.7184              3224.0169              3234.6011
 Red. masses --     10.4097                 1.0891                 1.0906
 Frc consts  --     20.9619                 6.6700                 6.7230
 IR Inten    --    403.8310                 0.0982                 0.0039

                     49                     50                     51
                      A                      A                      A
 Frequencies --   3236.3573              3254.1403              3819.2511
 Red. masses --      1.0960                 1.0943                 1.0646
 Frc consts  --      6.7634                 6.8277                 9.1497
 IR Inten    --      1.8145                 0.9314               135.8750

 - Thermochemistry -
 -------------------
 Temperature   298.150 Kelvin.  Pressure   1.00000 Atm.
 Atom     1 has atomic number  6 and mass  12.00000

 Molecular mass:   206.01908 amu.
 Principal axes and moments of inertia in atomic units:
                           1         2         3
     Eigenvalues --   815.418796010.271996512.08026
           X            0.99999   0.00485   0.00000
           Y           -0.00485   0.99999   0.00000
           Z            0.00000   0.00000   1.00000
 This molecule is an asymmetric top.
 Rotational symmetry number  1.
 Warning -- assumption of classical behavior for rotation
           may cause significant error
 Rotational temperatures (Kelvin)      0.10622     0.01441     0.01330
 Rotational constants (GHZ):           2.21327     0.30028     0.27714
 Zero-point vibrational energy     331645.6 (Joules/Mol)
                                   79.26521 (Kcal/Mol)
 Warning -- explicit consideration of  16 degrees of freedom as
           vibrations may cause significant error
 Vibrational temperatures:     45.03    86.95   118.22   169.09   181.19
          (Kelvin)            292.50   407.25   414.04   499.95   605.03
                              632.44   645.60   726.45   740.98   797.86
                              860.44   904.15   914.44   940.05  1019.38
                             1031.23  1110.86  1147.97  1225.06  1235.33
                             1286.67  1389.22  1440.43  1464.84  1498.89
                             1628.30  1648.22  1726.45  1762.95  1774.28
                             1824.39  1838.32  1890.20  1932.28  1941.91
                             2010.50  2117.33  2247.44  2392.57  2423.10
                             2659.89  4638.64  4653.87  4656.40  4681.98
                             5495.05

 Zero-point correction=                           0.126317 (Hartree/Particle)
 Thermal correction to Energy=                    0.137695
 Thermal correction to Enthalpy=                  0.138639
 Thermal correction to Gibbs Free Energy=         0.087147
 Sum of electronic and zero-point Energies=           -833.010402
 Sum of electronic and thermal Energies=              -832.999024
 Sum of electronic and thermal Enthalpies=            -832.998079
 Sum of electronic and thermal Free Energies=         -833.049571

                     E (Thermal)             CV                S
                      KCal/Mol        Cal/Mol-Kelvin    Cal/Mol-Kelvin
 Total                   86.405             42.433            108.374
 Electronic               0.000              0.000              0.000
 Translational            0.889              2.981             41.873
 Rotational               0.889              2.981             31.834
 Vibrational             84.628             36.472             34.667
 Vibration     1          0.594              1.983              5.745
 Vibration     2          0.597              1.973              4.443
 Vibration     3          0.600              1.961              3.838
 Vibration     4          0.608              1.935              3.141
 Vibration     5          0.611              1.927              3.007
 Vibration     6          0.639              1.835              2.103
 Vibration     7          0.682              1.705              1.515
 Vibration     8          0.685              1.696              1.487
 Vibration     9          0.725              1.580              1.178
 Vibration    10          0.783              1.426              0.890
 Vibration    11          0.800              1.384              0.828
 Vibration    12          0.808              1.364              0.800
 Vibration    13          0.860              1.239              0.646
 Vibration    14          0.870              1.217              0.622
 Vibration    15          0.910              1.130              0.535
 Vibration    16          0.956              1.036              0.453

                           ! Non-Optimized Parameters !
 Normal termination of Gaussian 16 at Thu May 11 19:38:06 2023.
