 Gaussian 16, Revision C.01,
 Gaussian 16:  ES64L-G16RevC.01  3-Jul-2019

 ------------------------------------
 # opt freq m062x/aug-cc-pvtz pop=nbo
 ------------------------------------

 -----
 m-OMe
 -----
 Symbolic Z-matrix:
 Charge =  0 Multiplicity = 1

 SCF Done:  E(RM062X) =  -535.312913537     A.U. after   13 cycles
 SCF Done:  E(RM062X) =  -535.341917071     A.U. after   12 cycles
 SCF Done:  E(RM062X) =  -535.344882820     A.U. after   12 cycles
 SCF Done:  E(RM062X) =  -535.345029113     A.U. after   11 cycles
 SCF Done:  E(RM062X) =  -535.345050077     A.U. after    9 cycles
 SCF Done:  E(RM062X) =  -535.345054307     A.U. after    9 cycles
 Optimization completed.
    -- Stationary point found.
 Normal termination of Gaussian 16 at Wed Apr  2 12:44:01 2025.

 ----------------------------------------------------------------------
 #N Geom=AllCheck Guess=TCheck SCRF=Check GenChk RM062X/Aug-CC-pVTZ Fre
 q
 ----------------------------------------------------------------------

 Structure from the checkpoint file:  "m-OMe.chk"
 -----
 m-OMe
 -----
 Charge =  0 Multiplicity = 1

                         Standard orientation:
 ---------------------------------------------------------------------
 Center     Atomic      Atomic             Coordinates (Angstroms)
 Number     Number       Type             X           Y           Z
 ---------------------------------------------------------------------
      1          6           0        0.930195    1.603231    0.000044
      2          6           0       -0.266986    2.307144    0.000021
      3          6           0       -1.474307    1.635600   -0.000025
      4          6           0       -1.503106    0.240419   -0.000053
      5          6           0       -0.314012   -0.475871   -0.000039
      6          6           0        0.896054    0.218047    0.000015
      7          6           0        2.193216   -0.507883    0.000039
      8          8           0        3.273917    0.016139    0.000028
      9          8           0        2.050968   -1.849197   -0.000069
     10          8           0       -2.733570   -0.327677   -0.000123
     11          6           0       -2.804419   -1.737495    0.000131
     12          1           0        1.886170    2.105899    0.000087
     13          1           0       -0.258735    3.388224    0.000044
     14          1           0       -2.415906    2.166955   -0.000040
     15          1           0       -0.302549   -1.553896   -0.000075
     16          1           0        2.942309   -2.221515   -0.000097
     17          1           0       -3.860548   -1.988009    0.000265
     18          1           0       -2.330610   -2.155631   -0.890783
     19          1           0       -2.330455   -2.155307    0.891113
 ---------------------------------------------------------------------

 SCF Done:  E(RM062X) =  -535.345054307     A.U. after    1 cycles

 The electronic state is 1-A.
 Alpha  occ. eigenvalues --  -19.67823 -19.66670 -19.62092 -10.68353 -10.61577
 Alpha  occ. eigenvalues --  -10.59831 -10.56697 -10.55615 -10.55551 -10.55329
 Alpha  occ. eigenvalues --  -10.54974  -1.24598  -1.20711  -1.14862  -0.97949
 Alpha  occ. eigenvalues --   -0.88376  -0.86245  -0.80596  -0.76109  -0.70289
 Alpha  occ. eigenvalues --   -0.67290  -0.63076  -0.59449  -0.57542  -0.56638
 Alpha  occ. eigenvalues --   -0.56374  -0.55411  -0.54572  -0.52156  -0.49510
 Alpha  occ. eigenvalues --   -0.48353  -0.46321  -0.44670  -0.43290  -0.41537
 Alpha  occ. eigenvalues --   -0.41322  -0.40005  -0.36454  -0.32653  -0.29193
 Alpha virt. eigenvalues --   -0.02669  -0.00976   0.00119   0.00331   0.01470
 Alpha virt. eigenvalues --    0.01789   0.02081   0.02348   0.02580   0.04229
 Alpha virt. eigenvalues --    0.04573   0.05309   0.05630   0.05714   0.06611

 Mulliken charges:
               1
     1  C   -0.878697
     2  C   -0.214618
     3  C   -0.391538
     4  C    0.945130
     5  C   -0.480033
     6  C    1.754092
     7  C    0.485236
     8  O   -0.939365
     9  O   -0.541015
    10  O   -0.737168
    11  C   -0.946413
    12  H    0.129767
    13  H    0.228654
    14  H    0.209324
    15  H    0.100082
    16  H    0.299423
    17  H    0.290270
    18  H    0.343445
    19  H    0.343422
 Sum of Mulliken charges =   0.00000

 Dipole moment (field-independent basis, Debye):
    X=             -1.9222    Y=             -1.6880    Z=              0.0003  Tot=              2.5582
 Quadrupole moment (field-independent basis, Debye-Ang):
   XX=            -67.8598   YY=            -52.9537   ZZ=            -66.1482
   XY=             -1.9543   XZ=             -0.0011   YZ=              0.0000

  Exact polarizability:     134.066       1.881     120.518       0.000       0.001      63.763
 Approx polarizability:     160.958       2.380     150.805       0.002       0.001      85.422

 Summary of Natural Population Analysis:

                                       Natural Population
                Natural  -----------------------------------------------
    Atom  No    Charge         Core      Valence    Rydberg      Total
 -----------------------------------------------------------------------
      C    1   -0.18549      1.99920     4.16960    0.01669     6.18549
      C    2   -0.18900      1.99929     4.17268    0.01703     6.18900
      C    3   -0.21797      1.99917     4.20096    0.01784     6.21797
      C    4    0.31116      1.99890     3.66326    0.02667     5.68884
      C    5   -0.26689      1.99908     4.24915    0.01866     6.26689
      C    6   -0.15559      1.99901     4.12926    0.02731     6.15559
      C    7    0.80567      1.99938     3.16160    0.03334     5.19433
      O    8   -0.60107      1.99977     6.56934    0.03197     8.60107
      O    9   -0.70439      1.99978     6.68003    0.02458     8.70439
      O   10   -0.51908      1.99974     6.49225    0.02708     8.51908
      C   11   -0.21725      1.99937     4.20470    0.01318     6.21725
      H   12    0.23403      0.00000     0.76290    0.00306     0.76597
      H   13    0.21321      0.00000     0.78421    0.00258     0.78679
      H   14    0.22125      0.00000     0.77459    0.00417     0.77875
      H   15    0.23505      0.00000     0.76124    0.00371     0.76495
      H   16    0.49834      0.00000     0.49824    0.00342     0.50166
      H   17    0.19245      0.00000     0.80337    0.00418     0.80755
      H   18    0.17278      0.00000     0.82468    0.00253     0.82722
      H   19    0.17279      0.00000     0.82468    0.00253     0.82721
 =======================================================================
   * Total *    0.00000     21.99270    57.72675    0.28055    80.00000

                      1                      2                      3
                      A                      A                      A
 Frequencies --     53.8293               100.1015               152.7304
 Red. masses --      8.6772                 3.3705                 4.1711
 Frc consts  --      0.0148                 0.0199                 0.0573
 IR Inten    --      0.6988                 4.9507                 0.3937

                      4                      5                      6
                      A                      A                      A
 Frequencies --    158.4549               229.7987               289.9940
 Red. masses --      4.8985                 2.4560                 4.1150
 Frc consts  --      0.0725                 0.0764                 0.2039
 IR Inten    --      0.1604                 0.9851                 6.0722

                      7                      8                      9
                      A                      A                      A
 Frequencies --    300.9328               382.5864               438.5333
 Red. masses --      1.3317                 7.9265                 2.9206
 Frc consts  --      0.0711                 0.6836                 0.3309
 IR Inten    --      0.0594                 4.1333                 6.3493

                     10                     11                     12
                      A                      A                      A
 Frequencies --    461.5272               491.2275               537.7941
 Red. masses --      4.8211                 6.7707                 2.5837
 Frc consts  --      0.6050                 0.9626                 0.4403
 IR Inten    --      0.0842                 3.5718                 7.3125

                     13                     14                     15
                      A                      A                      A
 Frequencies --    580.2868               613.6401               651.7236
 Red. masses --      4.7805                 1.4605                 5.2328
 Frc consts  --      0.9484                 0.3240                 1.3095
 IR Inten    --      6.0660                82.5295                38.0736

                     16                     17                     18
                      A                      A                      A
 Frequencies --    696.5618               741.7723               789.6108
 Red. masses --      2.2419                 4.9593                 2.8780
 Frc consts  --      0.6409                 1.6077                 1.0572
 IR Inten    --      3.4128                34.5644                88.3995

                     19                     20                     21
                      A                      A                      A
 Frequencies --    843.4328               914.2796               934.6312
 Red. masses --      1.7241                 1.6226                 4.2832
 Frc consts  --      0.7226                 0.7991                 2.2044
 IR Inten    --      3.5111                11.5224                12.7587

                     22                     23                     24
                      A                      A                      A
 Frequencies --    953.6984              1017.8885              1019.2656
 Red. masses --      1.4448                 6.0196                 1.3423
 Frc consts  --      0.7743                 3.6747                 0.8216
 IR Inten    --      0.0005                 2.4722                 0.2636

                     25                     26                     27
                      A                      A                      A
 Frequencies --   1099.5645              1112.0896              1142.6593
 Red. masses --      2.3029                 2.6935                 2.2090
 Frc consts  --      1.6405                 1.9627                 1.6994
 IR Inten    --     15.8105                61.6208                14.1465

                     28                     29                     30
                      A                      A                      A
 Frequencies --   1178.7513              1184.5259              1207.2305
 Red. masses --      1.1388                 1.2796                 1.6472
 Frc consts  --      0.9322                 1.0578                 1.4144
 IR Inten    --      3.3763                 1.2275               309.2619

                     31                     32                     33
                      A                      A                      A
 Frequencies --   1223.0533              1307.4963              1319.1348
 Red. masses --      1.4536                 3.3099                 1.8308
 Frc consts  --      1.2811                 3.3339                 1.8771
 IR Inten    --     17.5835               147.8407                 0.0468

                     34                     35                     36
                      A                      A                      A
 Frequencies --   1360.5707              1397.4212              1472.6183
 Red. masses --      2.6049                 3.5084                 1.6655
 Frc consts  --      2.8411                 4.0365                 2.1281
 IR Inten    --     96.2291               169.3382                24.1182

                     37                     38                     39
                      A                      A                      A
 Frequencies --   1499.1885              1508.2201              1519.1498
 Red. masses --      1.7741                 1.0433                 1.1268
 Frc consts  --      2.3494                 1.3983                 1.5322
 IR Inten    --      2.0814                 8.8638                50.3184

                     40                     41                     42
                      A                      A                      A
 Frequencies --   1544.6968              1667.6794              1673.0265
 Red. masses --      2.7207                 6.7065                 6.2978
 Frc consts  --      3.8248                10.9893                10.3859
 IR Inten    --     81.9316                 2.3203               121.6089

                     43                     44                     45
                      A                      A                      A
 Frequencies --   1848.1042              3043.1337              3104.4137
 Red. masses --     10.3636                 1.0348                 1.1059
 Frc consts  --     20.8552                 5.6460                 6.2794
 IR Inten    --    387.6615                34.5142                24.9398

                     46                     47                     48
                      A                      A                      A
 Frequencies --   3172.8042              3211.0485              3226.4968
 Red. masses --      1.1002                 1.0878                 1.0940
 Frc consts  --      6.5256                 6.6082                 6.7098
 IR Inten    --     15.5398                 4.6897                 1.7657

                     49                     50                     51
                      A                      A                      A
 Frequencies --   3239.2891              3261.1904              3818.8767
 Red. masses --      1.0949                 1.0902                 1.0646
 Frc consts  --      6.7690                 6.8312                 9.1476
 IR Inten    --      1.9851                 2.4681               124.7419

 - Thermochemistry -
 -------------------
 Temperature   298.150 Kelvin.  Pressure   1.00000 Atm.
 Atom     1 has atomic number  6 and mass  12.00000

 Molecular mass:   152.04734 amu.
 Principal axes and moments of inertia in atomic units:
                           1         2         3
     Eigenvalues --   961.971852255.058213205.60266
           X            0.99965   0.02633   0.00000
           Y           -0.02633   0.99965   0.00000
           Z            0.00000   0.00000   1.00000
 This molecule is an asymmetric top.
 Rotational symmetry number  1.
 Warning -- assumption of classical behavior for rotation
           may cause significant error
 Rotational temperatures (Kelvin)      0.09004     0.03841     0.02702
 Rotational constants (GHZ):           1.87609     0.80031     0.56300
 Zero-point vibrational energy     392953.7 (Joules/Mol)
                                   93.91820 (Kcal/Mol)
 Warning -- explicit consideration of  14 degrees of freedom as
           vibrations may cause significant error
 Vibrational temperatures:     77.45   144.02   219.75   227.98   330.63
          (Kelvin)            417.24   432.98   550.46   630.95   664.03
                              706.77   773.77   834.90   882.89   937.68
                             1002.20  1067.24  1136.07  1213.51  1315.44
                             1344.73  1372.16  1464.51  1466.50  1582.03
                             1600.05  1644.03  1695.96  1704.27  1736.94
                             1759.70  1881.20  1897.94  1957.56  2010.58
                             2118.77  2157.00  2169.99  2185.72  2222.47
                             2399.42  2407.11  2659.01  4378.39  4466.56
                             4564.96  4619.98  4642.21  4660.61  4692.13
                             5494.51

 Zero-point correction=                           0.149668 (Hartree/Particle)
 Thermal correction to Energy=                    0.159212
 Thermal correction to Enthalpy=                  0.160156
 Thermal correction to Gibbs Free Energy=         0.114287
 Sum of electronic and zero-point Energies=           -535.195386
 Sum of electronic and thermal Energies=              -535.185842
 Sum of electronic and thermal Enthalpies=            -535.184898
 Sum of electronic and thermal Free Energies=         -535.230768

                     E (Thermal)             CV                S
                      KCal/Mol        Cal/Mol-Kelvin    Cal/Mol-Kelvin
 Total                   99.907             36.022             96.540
 Electronic               0.000              0.000              0.000
 Translational            0.889              2.981             40.967
 Rotational               0.889              2.981             30.320
 Vibrational             98.130             30.061             25.253
 Vibration     1          0.596              1.976              4.672
 Vibration     2          0.604              1.949              3.452
 Vibration     3          0.619              1.900              2.638
 Vibration     4          0.621              1.893              2.568
 Vibration     5          0.652              1.795              1.881
 Vibration     6          0.686              1.692              1.474
 Vibration     7          0.693              1.672              1.412
 Vibration     8          0.752              1.507              1.029
 Vibration     9          0.799              1.386              0.831
 Vibration    10          0.819              1.335              0.762
 Vibration    11          0.847              1.269              0.680
 Vibration    12          0.893              1.166              0.570
 Vibration    13          0.937              1.074              0.485
 Vibration    14          0.973              1.003              0.427

 Optimization completed.
    -- Stationary point found.
 Normal termination of Gaussian 16 at Wed Apr  2 13:47:56 2025.
