 Gaussian 16, Revision C.01,
 Gaussian 16:  ES64L-G16RevC.01  3-Jul-2019

 ------------------------------------
 # opt freq m062x/aug-cc-pvtz pop=nbo
 ------------------------------------

 -------
 m-SO2Me
 -------
 Symbolic Z-matrix:
 Charge =  0 Multiplicity = 1

 SCF Done:  E(RM062X) =  -1008.66596540     A.U. after   15 cycles
 SCF Done:  E(RM062X) =  -1008.72016201     A.U. after   13 cycles
 SCF Done:  E(RM062X) =  -1008.73909905     A.U. after   13 cycles
 SCF Done:  E(RM062X) =  -1008.74010229     A.U. after   12 cycles
 SCF Done:  E(RM062X) =  -1008.74038022     A.U. after   12 cycles
 SCF Done:  E(RM062X) =  -1008.74043470     A.U. after   12 cycles
 SCF Done:  E(RM062X) =  -1008.74046432     A.U. after   10 cycles
 SCF Done:  E(RM062X) =  -1008.74047656     A.U. after    9 cycles
 SCF Done:  E(RM062X) =  -1008.74047780     A.U. after    9 cycles
 SCF Done:  E(RM062X) =  -1008.74047792     A.U. after    8 cycles
 SCF Done:  E(RM062X) =  -1008.74047794     A.U. after    7 cycles
 Optimization completed.
    -- Stationary point found.
 Normal termination of Gaussian 16 at Wed Apr  2 13:57:43 2025.

 ----------------------------------------------------------------------
 #N Geom=AllCheck Guess=TCheck SCRF=Check GenChk RM062X/Aug-CC-pVTZ Fre
 q
 ----------------------------------------------------------------------

 Structure from the checkpoint file:  "m-SO2Me.chk"
 -------
 m-SO2Me
 -------
 Charge =  0 Multiplicity = 1

                         Standard orientation:
 ---------------------------------------------------------------------
 Center     Atomic      Atomic             Coordinates (Angstroms)
 Number     Number       Type             X           Y           Z
 ---------------------------------------------------------------------
      1          6           0       -1.861370    1.587085    0.054780
      2          6           0       -0.725210    2.379485    0.032905
      3          6           0        0.529283    1.788897   -0.036592
      4          6           0        0.620256    0.406103   -0.082963
      5          6           0       -0.503540   -0.403101   -0.072898
      6          6           0       -1.752627    0.200602    0.000462
      7          6           0       -3.008323   -0.598805    0.013902
      8          8           0       -4.110892   -0.127538    0.067249
      9          8           0       -2.784697   -1.922269   -0.037003
     10         16           0        2.230385   -0.354360   -0.162255
     11          8           0        3.162227    0.631932   -0.673422
     12          8           0        2.085582   -1.642564   -0.810582
     13          6           0        2.635561   -0.650207    1.546376
     14          1           0       -2.848911    2.024368    0.106001
     15          1           0       -0.814038    3.456041    0.062167
     16          1           0        1.432795    2.382354   -0.076567
     17          1           0       -0.403761   -1.477379   -0.142182
     18          1           0       -3.647124   -2.358305   -0.031513
     19          1           0        3.618627   -1.116150    1.537546
     20          1           0        2.662211    0.302879    2.066979
     21          1           0        1.892104   -1.320881    1.967881
 ---------------------------------------------------------------------

 SCF Done:  E(RM062X) =  -1008.74047794     A.U. after    1 cycles

 The electronic state is 1-A.
 Alpha  occ. eigenvalues --  -90.13802 -19.69207 -19.63634 -19.62131 -19.62098
 Alpha  occ. eigenvalues --  -10.69948 -10.59664 -10.58906 -10.58797 -10.58723
 Alpha  occ. eigenvalues --  -10.58507 -10.58225 -10.57832  -8.44749  -6.36865
 Alpha  occ. eigenvalues --   -6.36825  -6.36797  -1.26113  -1.23717  -1.16460
 Alpha  occ. eigenvalues --   -1.12992  -1.01112  -0.91375  -0.89749  -0.87306
 Alpha  occ. eigenvalues --   -0.78205  -0.76055  -0.72090  -0.67203  -0.64155
 Alpha  occ. eigenvalues --   -0.60558  -0.58687  -0.58457  -0.56986  -0.56567
 Alpha  occ. eigenvalues --   -0.56198  -0.54549  -0.53941  -0.51555  -0.51018
 Alpha  occ. eigenvalues --   -0.50234  -0.47800  -0.46140  -0.45266  -0.42204
 Alpha  occ. eigenvalues --   -0.41462  -0.40952  -0.38802  -0.38318  -0.36652
 Alpha  occ. eigenvalues --   -0.35065  -0.34945
 Alpha virt. eigenvalues --   -0.04898  -0.02809  -0.01503  -0.00485  -0.00135
 Alpha virt. eigenvalues --    0.01256   0.01649   0.01945   0.02376   0.03261
 Alpha virt. eigenvalues --    0.03634   0.04317   0.05000   0.05341   0.05585

 Mulliken charges:
               1
     1  C   -0.679007
     2  C   -0.299847
     3  C   -0.545130
     4  C    0.894406
     5  C   -0.840818
     6  C    1.566657
     7  C    0.430255
     8  O   -0.936362
     9  O   -0.527748
    10  S    1.917836
    11  O   -0.946292
    12  O   -0.948393
    13  C   -1.044499
    14  H    0.123024
    15  H    0.222093
    16  H    0.223650
    17  H    0.192699
    18  H    0.299758
    19  H    0.252432
    20  H    0.310508
    21  H    0.334779
 Sum of Mulliken charges =   0.00000

 Dipole moment (field-independent basis, Debye):
    X=             -1.3591    Y=              0.8042    Z=              3.6880  Tot=              4.0118
 Quadrupole moment (field-independent basis, Debye-Ang):
   XX=            -94.4638   YY=            -74.8522   ZZ=            -82.2919
   XY=              4.8047   XZ=             11.3799   YZ=             -2.7675

  Exact polarizability:     161.536      -1.057     130.870       1.430      -0.129      85.026
 Approx polarizability:     186.136       1.226     176.654      -2.338       2.199     112.752

 Summary of Natural Population Analysis:

                                       Natural Population
                Natural  -----------------------------------------------
    Atom  No    Charge         Core      Valence    Rydberg      Total
 -----------------------------------------------------------------------
      C    1   -0.13383      1.99921     4.11544    0.01918     6.13383
      C    2   -0.19981      1.99926     4.18367    0.01687     6.19981
      C    3   -0.16388      1.99916     4.14398    0.02074     6.16388
      C    4   -0.30989      1.99887     4.28011    0.03091     6.30989
      C    5   -0.15076      1.99908     4.13034    0.02133     6.15076
      C    6   -0.16889      1.99899     4.14360    0.02631     6.16889
      C    7    0.80514      1.99939     3.16281    0.03266     5.19486
      O    8   -0.59390      1.99977     6.56234    0.03180     8.59390
      O    9   -0.69499      1.99978     6.67029    0.02491     8.69499
      S   10    2.17373      9.99870     3.64257    0.18500    13.82627
      O   11   -0.96301      1.99984     6.92225    0.04091     8.96301
      O   12   -0.96002      1.99984     6.91908    0.04111     8.96002
      C   13   -0.82365      1.99940     4.80687    0.01738     6.82365
      H   14    0.23888      0.00000     0.75839    0.00273     0.76112
      H   15    0.22076      0.00000     0.77687    0.00237     0.77924
      H   16    0.24313      0.00000     0.75401    0.00286     0.75687
      H   17    0.25743      0.00000     0.73911    0.00346     0.74257
      H   18    0.50177      0.00000     0.49504    0.00319     0.49823
      H   19    0.24946      0.00000     0.74719    0.00334     0.75054
      H   20    0.23591      0.00000     0.76181    0.00227     0.76409
      H   21    0.23643      0.00000     0.76127    0.00230     0.76357
 =======================================================================
   * Total *    0.00000     33.99131    69.47706    0.53163   104.00000

                      1                      2                      3
                      A                      A                      A
 Frequencies --     26.5124                53.5151               108.8719
 Red. masses --      5.5492                11.1263                 3.9692
 Frc consts  --      0.0023                 0.0188                 0.0277
 IR Inten    --      3.1868                 3.2072                 3.8483

                      4                      5                      6
                      A                      A                      A
 Frequencies --    119.4329               167.1278               207.3983
 Red. masses --      7.5071                 4.5372                 1.1672
 Frc consts  --      0.0631                 0.0747                 0.0296
 IR Inten    --      2.1379                 0.9940                 0.2748

                      7                      8                      9
                      A                      A                      A
 Frequencies --    236.8202               258.4182               293.0320
 Red. masses --      4.3430                 3.8523                 8.2576
 Frc consts  --      0.1435                 0.1516                 0.4178
 IR Inten    --      0.6423                 0.5009                 1.0484

                     10                     11                     12
                      A                      A                      A
 Frequencies --    312.2775               377.1393               421.9319
 Red. masses --      4.1910                 6.5089                 4.7440
 Frc consts  --      0.2408                 0.5455                 0.4976
 IR Inten    --      0.9171                 5.4585                 3.6845

                     13                     14                     15
                      A                      A                      A
 Frequencies --    427.7434               450.5716               519.8744
 Red. masses --      3.6707                 5.0516                 6.3814
 Frc consts  --      0.3957                 0.6042                 1.0162
 IR Inten    --      2.1925                32.0942                27.5528

                     16                     17                     18
                      A                      A                      A
 Frequencies --    529.1129               545.5920               605.5529
 Red. masses --      5.8156                 3.8607                 1.3928
 Frc consts  --      0.9593                 0.6771                 0.3009
 IR Inten    --     26.1810                38.6244               100.3491

                     19                     20                     21
                      A                      A                      A
 Frequencies --    648.3774               701.6221               702.9380
 Red. masses --      5.3268                 2.9442                 4.2830
 Frc consts  --      1.3194                 0.8539                 1.2469
 IR Inten    --     43.3961                 3.4699                17.1543

                     22                     23                     24
                      A                      A                      A
 Frequencies --    764.5056               790.2611               852.7497
 Red. masses --      3.6654                 3.8292                 3.2445
 Frc consts  --      1.2622                 1.4090                 1.3901
 IR Inten    --    119.9366                26.3939                13.0320

                     25                     26                     27
                      A                      A                      A
 Frequencies --    859.0876               970.1446               972.5388
 Red. masses --      2.1236                 1.4342                 1.3646
 Frc consts  --      0.9234                 0.7953                 0.7604
 IR Inten    --      6.2344                18.0288                 5.7174

                     28                     29                     30
                      A                      A                      A
 Frequencies --    980.3366               995.0932              1020.5731
 Red. masses --      1.4847                 1.4000                 6.0537
 Frc consts  --      0.8407                 0.8168                 3.7150
 IR Inten    --     39.5653                 0.7785                 1.5388

                     31                     32                     33
                      A                      A                      A
 Frequencies --   1041.6356              1113.1799              1115.2697
 Red. masses --      1.3620                 2.0453                 1.8758
 Frc consts  --      0.8707                 1.4933                 1.3747
 IR Inten    --      0.1828                48.6801                29.6870

                     34                     35                     36
                      A                      A                      A
 Frequencies --   1151.4804              1176.6228              1186.1234
 Red. masses --      3.8288                 4.0830                 1.1453
 Frc consts  --      2.9911                 3.3304                 0.9494
 IR Inten    --     89.9397               200.6603                 8.3786

                     37                     38                     39
                      A                      A                      A
 Frequencies --   1222.7627              1308.5069              1336.8977
 Red. masses --      1.9971                 1.6094                 3.7669
 Frc consts  --      1.7593                 1.6235                 3.9667
 IR Inten    --    189.7750                 0.1164                40.8018

                     40                     41                     42
                      A                      A                      A
 Frequencies --   1341.7205              1361.3585              1399.0785
 Red. masses --      1.2470                 8.7719                 3.0217
 Frc consts  --      1.3226                 9.5783                 3.4849
 IR Inten    --     19.1674               142.0369               190.8677

                     43                     44                     45
                      A                      A                      A
 Frequencies --   1453.7348              1455.6636              1469.6045
 Red. masses --      1.0613                 1.0507                 3.1326
 Frc consts  --      1.3214                 1.3118                 3.9862
 IR Inten    --      5.5467                 2.4519                10.9708

                     46                     47                     48
                      A                      A                      A
 Frequencies --   1523.3438              1651.2377              1671.3395
 Red. masses --      2.6556                 6.5078                 6.3748
 Frc consts  --      3.6309                10.4544                10.4917
 IR Inten    --      4.3812                 1.8167                16.6105

                     49                     50                     51
                      A                      A                      A
 Frequencies --   1853.3890              3085.5199              3188.1316
 Red. masses --     10.5881                 1.0287                 1.1058
 Frc consts  --     21.4290                 5.7701                 6.6219
 IR Inten    --    405.8470                 1.2542                 0.3935

                     52                     53                     54
                      A                      A                      A
 Frequencies --   3198.8594              3214.2227              3223.8109
 Red. masses --      1.1079                 1.0881                 1.0920
 Frc consts  --      6.6797                 6.6230                 6.6864
 IR Inten    --      0.0120                 1.8019                 4.3472

                     55                     56                     57
                      A                      A                      A
 Frequencies --   3232.5790              3233.4975              3816.8213
 Red. masses --      1.0925                 1.0965                 1.0646
 Frc consts  --      6.7260                 6.7549                 9.1382
 IR Inten    --      3.1278                 5.2924               142.0343

 - Thermochemistry -
 -------------------
 Temperature   298.150 Kelvin.  Pressure   1.00000 Atm.
 Atom     1 has atomic number  6 and mass  12.00000

 Molecular mass:   200.01433 amu.
 Principal axes and moments of inertia in atomic units:
                           1         2         3
     Eigenvalues --  1264.000584203.497435054.26765
           X            0.99991  -0.00180   0.01360
           Y            0.00198   0.99991  -0.01301
           Z           -0.01357   0.01303   0.99982
 This molecule is an asymmetric top.
 Rotational symmetry number  1.
 Warning -- assumption of classical behavior for rotation
           may cause significant error
 Rotational temperatures (Kelvin)      0.06852     0.02061     0.01714
 Rotational constants (GHZ):           1.42780     0.42934     0.35707
 Zero-point vibrational energy     406404.6 (Joules/Mol)
                                   97.13303 (Kcal/Mol)
 Warning -- explicit consideration of  18 degrees of freedom as
           vibrations may cause significant error
 Vibrational temperatures:     38.15    77.00   156.64   171.84   240.46
          (Kelvin)            298.40   340.73   371.81   421.61   449.30
                              542.62   607.07   615.43   648.27   747.98
                              761.28   784.99   871.26   932.87  1009.48
                             1011.37  1099.95  1137.01  1226.92  1236.04
                             1395.82  1399.27  1410.49  1431.72  1468.38
                             1498.68  1601.62  1604.62  1656.72  1692.90
                             1706.57  1759.28  1882.65  1923.50  1930.44
                             1958.69  2012.96  2091.60  2094.38  2114.43
                             2191.75  2375.76  2404.68  2666.61  4439.37
                             4587.01  4602.45  4624.55  4638.34  4650.96
                             4652.28  5491.55

 Zero-point correction=                           0.154791 (Hartree/Particle)
 Thermal correction to Energy=                    0.166734
 Thermal correction to Enthalpy=                  0.167679
 Thermal correction to Gibbs Free Energy=         0.115393
 Sum of electronic and zero-point Energies=          -1008.585687
 Sum of electronic and thermal Energies=             -1008.573743
 Sum of electronic and thermal Enthalpies=           -1008.572799
 Sum of electronic and thermal Free Energies=        -1008.625085

                     E (Thermal)             CV                S
                      KCal/Mol        Cal/Mol-Kelvin    Cal/Mol-Kelvin
 Total                  104.627             44.491            110.045
 Electronic               0.000              0.000              0.000
 Translational            0.889              2.981             41.784
 Rotational               0.889              2.981             31.663
 Vibrational            102.850             38.529             36.597
 Vibration     1          0.593              1.984              6.075
 Vibration     2          0.596              1.976              4.683
 Vibration     3          0.606              1.942              3.289
 Vibration     4          0.609              1.933              3.110
 Vibration     5          0.624              1.883              2.468
 Vibration     6          0.641              1.829              2.066
 Vibration     7          0.656              1.784              1.827
 Vibration     8          0.667              1.749              1.672
 Vibration     9          0.688              1.687              1.456
 Vibration    10          0.701              1.650              1.350
 Vibration    11          0.748              1.519              1.051
 Vibration    12          0.784              1.423              0.885
 Vibration    13          0.789              1.410              0.866
 Vibration    14          0.809              1.360              0.794
 Vibration    15          0.875              1.206              0.610
 Vibration    16          0.884              1.186              0.589
 Vibration    17          0.901              1.149              0.553
 Vibration    18          0.964              1.020              0.440

                           ! Non-Optimized Parameters !
 Normal termination of Gaussian 16 at Wed Apr  2 15:18:15 2025.
