 Gaussian 16, Revision C.01,
 Gaussian 16:  ES64L-G16RevC.01  3-Jul-2019

 ------------------------------------
 # opt freq m062x/aug-cc-pvtz pop=nbo
 ------------------------------------

 ----
 o-Cl
 ----
 Symbolic Z-matrix:
 Charge =  0 Multiplicity = 1

 SCF Done:  E(RM062X) =  -880.388287135     A.U. after   14 cycles
 SCF Done:  E(RM062X) =  -880.416986725     A.U. after   12 cycles
 SCF Done:  E(RM062X) =  -880.419837936     A.U. after   13 cycles
 SCF Done:  E(RM062X) =  -880.419969555     A.U. after   11 cycles
 SCF Done:  E(RM062X) =  -880.420038565     A.U. after   10 cycles
 SCF Done:  E(RM062X) =  -880.420045482     A.U. after    9 cycles
 Optimization completed.
    -- Stationary point found.

 1\1\GINC-AE38\FOpt\RM062X\Aug-CC-pVTZ\C7H5Cl1O2\DHUANG\02-Apr-2025\0\\
 # opt freq m062x/aug-cc-pvtz pop=nbo\\o-Cl\\0,1\C,-1.4815653361,-0.323
 8823685,-0.0010870914\C,-1.5332652256,-1.7029961179,-0.0014278457\C,-0
 .3493492251,-2.4270798128,-0.0006162572\C,0.8658881894,-1.7671022277,0
 .0005209688\C,0.915389599,-0.3779811986,0.0008619835\C,-0.2674751385,0
 .3682918682,0.0000558258\C,-0.4053074203,1.8581604102,0.0002663928\O,-
 1.4723027161,2.4132077835,-0.0004718164\O,0.7440431572,2.5422433793,0.
 0013464614\Cl,2.5035868154,0.3162583233,0.0023130974\H,-2.3861926154,0

 Normal termination of Gaussian 16 at Wed Apr  2 12:25:54 2025.

 ----------------------------------------------------------------------
 #N Geom=AllCheck Guess=TCheck SCRF=Check GenChk RM062X/Aug-CC-pVTZ Fre
 q
 ----------------------------------------------------------------------

 Structure from the checkpoint file:  "o-Cl.chk"
 ----
 o-Cl
 ----
 Charge =  0 Multiplicity = 1

                         Standard orientation:
 ---------------------------------------------------------------------
 Center     Atomic      Atomic             Coordinates (Angstroms)
 Number     Number       Type             X           Y           Z
 ---------------------------------------------------------------------
      1          6           0        0.756507   -1.640826   -0.000003
      2          6           0        2.128061   -1.487631   -0.000002
      3          6           0        2.668748   -0.209502    0.000000
      4          6           0        1.836009    0.894544    0.000001
      5          6           0        0.454884    0.737692    0.000000
      6          6           0       -0.107904   -0.542684   -0.000002
      7          6           0       -1.560909   -0.899729   -0.000002
      8          8           0       -1.951749   -2.037183    0.000011
      9          8           0       -2.407727    0.135586   -0.000009
     10         17           0       -0.466996    2.205506    0.000003
     11          1           0        0.306337   -2.622988   -0.000003
     12          1           0        2.770506   -2.356361   -0.000002
     13          1           0        3.740695   -0.066709    0.000001
     14          1           0        2.243432    1.894869    0.000003
     15          1           0       -3.298622   -0.240826   -0.000007
 ---------------------------------------------------------------------

 SCF Done:  E(RM062X) =  -880.420045482     A.U. after    1 cycles

 The electronic state is 1-A.
 Alpha  occ. eigenvalues -- -102.68504 -19.68190 -19.62485 -10.69255 -10.62865
 Alpha  occ. eigenvalues --  -10.58350 -10.57051 -10.56695 -10.56679 -10.56192
 Alpha  occ. eigenvalues --   -9.82207  -7.54452  -7.53902  -7.53853  -1.25361
 Alpha  occ. eigenvalues --   -1.15366  -1.01549  -0.95297  -0.88833  -0.84727
 Alpha  occ. eigenvalues --   -0.76745  -0.70876  -0.69202  -0.62320  -0.59536
 Alpha  occ. eigenvalues --   -0.57528  -0.55436  -0.54928  -0.53161  -0.50912
 Alpha  occ. eigenvalues --   -0.49613  -0.48217  -0.44639  -0.43264  -0.41995
 Alpha  occ. eigenvalues --   -0.40549  -0.37846  -0.37243  -0.33587  -0.31543
 Alpha virt. eigenvalues --   -0.03605  -0.00796  -0.00341  -0.00005   0.00708
 Alpha virt. eigenvalues --    0.01878   0.02703   0.03175   0.03802   0.04711
 Alpha virt. eigenvalues --    0.05285   0.05859   0.06342   0.06790   0.06971

 Mulliken charges:
               1
     1  C   -0.932235
     2  C   -0.183709
     3  C   -0.017194
     4  C   -0.613895
     5  C    0.356621
     6  C    1.601726
     7  C    0.327451
     8  O   -0.907053
     9  O   -0.426855
    10  Cl  -0.229270
    11  H    0.129878
    12  H    0.122891
    13  H    0.154933
    14  H    0.330415
    15  H    0.286296
 Sum of Mulliken charges =   0.00000

 Dipole moment (field-independent basis, Debye):
    X=              1.7314    Y=              0.3412    Z=              0.0000  Tot=              1.7647
 Quadrupole moment (field-independent basis, Debye-Ang):
   XX=            -52.1703   YY=            -67.5185   ZZ=            -66.2062
   XY=             -3.8270   XZ=              0.0001   YZ=              0.0001

  Exact polarizability:     126.598      -4.095     120.080       0.000       0.000      59.482
 Approx polarizability:     154.072      -4.388     158.841       0.000       0.000      81.823

 Summary of Natural Population Analysis:

                                       Natural Population
                Natural  -----------------------------------------------
    Atom  No    Charge         Core      Valence    Rydberg      Total
 -----------------------------------------------------------------------
      C    1   -0.13906      1.99922     4.12061    0.01923     6.13906
      C    2   -0.21530      1.99926     4.19901    0.01703     6.21530
      C    3   -0.16365      1.99926     4.14752    0.01687     6.16365
      C    4   -0.23218      1.99914     4.21083    0.02221     6.23218
      C    5    0.00116      1.99865     3.97023    0.02996     5.99884
      C    6   -0.20604      1.99884     4.17945    0.02775     6.20604
      C    7    0.81039      1.99941     3.15725    0.03294     5.18961
      O    8   -0.60754      1.99977     6.57600    0.03177     8.60754
      O    9   -0.68261      1.99978     6.65616    0.02667     8.68261
     Cl   10    0.03726      9.99964     6.94670    0.01640    16.96274
      H   11    0.24052      0.00000     0.75654    0.00294     0.75948
      H   12    0.21679      0.00000     0.78074    0.00247     0.78321
      H   13    0.21498      0.00000     0.78243    0.00259     0.78502
      H   14    0.22674      0.00000     0.77009    0.00316     0.77326
      H   15    0.49854      0.00000     0.49808    0.00337     0.50146
 =======================================================================
   * Total *    0.00000     27.99298    51.75165    0.25537    80.00000

 ******    1 imaginary frequencies (negative Signs) ******

                      1                      2                      3
                      A                      A                      A
 Frequencies --    -28.6231               118.5376               217.4205
 Red. masses --     11.3455                 4.5993                 5.1609
 Frc consts  --      0.0055                 0.0381                 0.1437
 IR Inten    --      2.5817                 0.0641                 1.7686

                      4                      5                      6
                      A                      A                      A
 Frequencies --    218.5440               297.1459               350.0798
 Red. masses --     12.1567                 7.5230                 9.9831
 Frc consts  --      0.3421                 0.3914                 0.7209
 IR Inten    --      0.9016                 1.4457                 0.5257

                      7                      8                      9
                      A                      A                      A
 Frequencies --    435.2122               468.0514               499.5305
 Red. masses --      3.1773                10.0302                 3.4016
 Frc consts  --      0.3546                 1.2946                 0.5001
 IR Inten    --      5.2416                11.0728                 0.2083

                     10                     11                     12
                      A                      A                      A
 Frequencies --    530.8885               611.8360               643.2531
 Red. masses --      7.0878                 1.3121                 5.3831
 Frc consts  --      1.1770                 0.2894                 1.3123
 IR Inten    --      7.3299                56.8234                37.0196

                     13                     14                     15
                      A                      A                      A
 Frequencies --    703.7480               710.4262               780.5338
 Red. masses --      3.4128                 5.3943                 1.5146
 Frc consts  --      0.9959                 1.6041                 0.5437
 IR Inten    --     32.2458                19.3201                95.1718

                     16                     17                     18
                      A                      A                      A
 Frequencies --    803.7798               830.0902               917.9507
 Red. masses --      4.9402                 2.9353                 1.4155
 Frc consts  --      1.8805                 1.1917                 0.7028
 IR Inten    --     27.0264                 0.1918                 0.3128

                     19                     20                     21
                      A                      A                      A
 Frequencies --   1011.4593              1030.8584              1070.7970
 Red. masses --      1.3673                 1.3427                 6.6203
 Frc consts  --      0.8241                 0.8407                 4.4724
 IR Inten    --      1.1160                 0.0710                23.8819

                     22                     23                     24
                      A                      A                      A
 Frequencies --   1079.9731              1154.3472              1162.4800
 Red. masses --      2.7061                 1.8444                 2.4800
 Frc consts  --      1.8596                 1.4481                 1.9746
 IR Inten    --     18.2119                52.0719                44.5265

                     25                     26                     27
                      A                      A                      A
 Frequencies --   1183.8632              1225.5644              1290.2012
 Red. masses --      1.1477                 1.6681                 1.6047
 Frc consts  --      0.9477                 1.4762                 1.5739
 IR Inten    --      4.0960               172.9703                17.6329

                     28                     29                     30
                      A                      A                      A
 Frequencies --   1315.5741              1406.0287              1482.7189
 Red. masses --      4.6609                 2.7507                 2.4358
 Frc consts  --      4.7528                 3.2039                 3.1550
 IR Inten    --      3.5264               139.8112                71.9307

                     31                     32                     33
                      A                      A                      A
 Frequencies --   1520.5434              1636.8893              1667.8617
 Red. masses --      2.6140                 6.5161                 6.2282
 Frc consts  --      3.5608                10.2867                10.2078
 IR Inten    --     10.4366                 6.0056                39.1965

                     34                     35                     36
                      A                      A                      A
 Frequencies --   1831.3574              3207.9208              3222.3027
 Red. masses --     10.3217                 1.0873                 1.0911
 Frc consts  --     20.3962                 6.5926                 6.6749
 IR Inten    --    409.5033                 2.1216                 2.5585

                     37                     38                     39
                      A                      A                      A
 Frequencies --   3231.1987              3236.2503              3801.9475
 Red. masses --      1.0943                 1.0967                 1.0642
 Frc consts  --      6.7314                 6.7676                 9.0637
 IR Inten    --      0.0125                 5.0850               122.5002

 - Thermochemistry -
 -------------------
 Temperature   298.150 Kelvin.  Pressure   1.00000 Atm.
 Atom     1 has atomic number  6 and mass  12.00000

 Molecular mass:   155.99781 amu.
 Principal axes and moments of inertia in atomic units:
                           1         2         3
     Eigenvalues --  1219.598151492.838252712.43640
           X            0.99975  -0.02244   0.00000
           Y            0.02244   0.99975   0.00000
           Z            0.00000   0.00000   1.00000
 This molecule is an asymmetric top.
 Rotational symmetry number  1.
 Warning -- assumption of classical behavior for rotation
           may cause significant error
 Rotational temperatures (Kelvin)      0.07102     0.05802     0.03193
 Rotational constants (GHZ):           1.47978     1.20893     0.66536
    1 imaginary frequencies ignored.
 Zero-point vibrational energy     280567.2 (Joules/Mol)
                                   67.05716 (Kcal/Mol)
 Warning -- explicit consideration of  10 degrees of freedom as
           vibrations may cause significant error
 Vibrational temperatures:    170.55   312.82   314.44   427.53   503.69
          (Kelvin)            626.17   673.42   718.71   763.83   880.30
                              925.50  1012.54  1022.14  1123.01  1156.46
                             1194.31  1320.73  1455.26  1483.18  1540.64
                             1553.84  1660.85  1672.55  1703.32  1763.31
                             1856.31  1892.82  2022.96  2133.30  2187.72
                             2355.12  2399.68  2634.91  4615.48  4636.17
                             4648.97  4656.24  5470.15

 Zero-point correction=                           0.106862 (Hartree/Particle)
 Thermal correction to Energy=                    0.114232
 Thermal correction to Enthalpy=                  0.115176
 Thermal correction to Gibbs Free Energy=         0.074184
 Sum of electronic and zero-point Energies=           -880.313183
 Sum of electronic and thermal Energies=              -880.305813
 Sum of electronic and thermal Enthalpies=            -880.304869
 Sum of electronic and thermal Free Energies=         -880.345862

                     E (Thermal)             CV                S
                      KCal/Mol        Cal/Mol-Kelvin    Cal/Mol-Kelvin
 Total                   71.682             28.751             86.276
 Electronic               0.000              0.000              0.000
 Translational            0.889              2.981             41.043
 Rotational               0.889              2.981             29.980
 Vibrational             69.904             22.790             15.252
 Vibration     1          0.609              1.934              3.124
 Vibration     2          0.646              1.815              1.980
 Vibration     3          0.646              1.813              1.971
 Vibration     4          0.691              1.679              1.433
 Vibration     5          0.727              1.575              1.166
 Vibration     6          0.796              1.393              0.842
 Vibration     7          0.825              1.321              0.743
 Vibration     8          0.855              1.251              0.659
 Vibration     9          0.886              1.182              0.585
 Vibration    10          0.971              1.007              0.430

 Optimization completed.
    -- Stationary point found.

 1\1\GINC-AE38\Freq\RM062X\Aug-CC-pVTZ\C7H5Cl1O2\DHUANG\02-Apr-2025\0\\
 #N Geom=AllCheck Guess=TCheck SCRF=Check GenChk RM062X/Aug-CC-pVTZ Fre
 q\\o-Cl\\0,1\C,-1.4815653361,-0.3238823685,-0.0010870914\C,-1.53326522
 56,-1.7029961179,-0.0014278457\C,-0.3493492251,-2.4270798128,-0.000616
 2572\C,0.8658881894,-1.7671022277,0.0005209688\C,0.915389599,-0.377981
 1986,0.0008619835\C,-0.2674751385,0.3682918682,0.0000558258\C,-0.40530
 74203,1.8581604102,0.0002663928\O,-1.4723027161,2.4132077835,-0.000471
 8164\O,0.7440431572,2.5422433793,0.0013464614\Cl,2.5035868154,0.316258

 Normal termination of Gaussian 16 at Wed Apr  2 13:03:07 2025.
