 Gaussian 16, Revision C.01,
 Gaussian 16:  ES64L-G16RevC.01  3-Jul-2019

 ------------------------------------
 # opt freq m062x/aug-cc-pvtz pop=nbo
 ------------------------------------

 -----
 o-iPr
 -----
 Symbolic Z-matrix:
 Charge =  0 Multiplicity = 1

 SCF Done:  E(RM062X) =  -538.701631434     A.U. after   14 cycles
 SCF Done:  E(RM062X) =  -538.733377992     A.U. after   12 cycles
 SCF Done:  E(RM062X) =  -538.737099338     A.U. after   12 cycles
 SCF Done:  E(RM062X) =  -538.736995687     A.U. after   12 cycles
 SCF Done:  E(RM062X) =  -538.738241717     A.U. after   11 cycles
 SCF Done:  E(RM062X) =  -538.738237307     A.U. after   12 cycles
 SCF Done:  E(RM062X) =  -538.738485294     A.U. after   11 cycles
 SCF Done:  E(RM062X) =  -538.738537267     A.U. after   10 cycles
 SCF Done:  E(RM062X) =  -538.738556459     A.U. after   10 cycles
 SCF Done:  E(RM062X) =  -538.738588367     A.U. after   11 cycles
 SCF Done:  E(RM062X) =  -538.738574847     A.U. after   13 cycles
 SCF Done:  E(RM062X) =  -538.738784353     A.U. after   12 cycles
 SCF Done:  E(RM062X) =  -538.738903402     A.U. after   13 cycles
 SCF Done:  E(RM062X) =  -538.738716278     A.U. after   12 cycles
 SCF Done:  E(RM062X) =  -538.739085359     A.U. after   10 cycles
 SCF Done:  E(RM062X) =  -538.739135973     A.U. after   12 cycles
 SCF Done:  E(RM062X) =  -538.739139479     A.U. after   10 cycles
 SCF Done:  E(RM062X) =  -538.739139877     A.U. after    8 cycles
 Optimization completed.
    -- Stationary point found.
 Normal termination of Gaussian 16 at Wed Apr  2 16:19:14 2025.

 ----------------------------------------------------------------------
 #N Geom=AllCheck Guess=TCheck SCRF=Check GenChk RM062X/Aug-CC-pVTZ Fre
 q
 ----------------------------------------------------------------------

 Structure from the checkpoint file:  "o-iPr.chk"
 -----
 o-iPr
 -----
 Charge =  0 Multiplicity = 1

                         Standard orientation:
 ---------------------------------------------------------------------
 Center     Atomic      Atomic             Coordinates (Angstroms)
 Number     Number       Type             X           Y           Z
 ---------------------------------------------------------------------
      1          6           0       -1.949737    0.813152    0.049239
      2          6           0       -1.749083    2.173053    0.180623
      3          6           0       -0.450823    2.662015    0.200379
      4          6           0        0.620281    1.794187    0.071911
      5          6           0        0.447391    0.415657   -0.057488
      6          6           0       -0.869915   -0.066189   -0.045253
      7          6           0       -1.264007   -1.503371   -0.126745
      8          8           0       -2.296718   -1.892280   -0.602986
      9          8           0       -0.389574   -2.357276    0.442376
     10          6           0        1.672575   -0.467196   -0.212667
     11          6           0        2.729806    0.146333   -1.132266
     12          6           0        2.275893   -0.776820    1.159998
     13          1           0       -2.948053    0.399470    0.023209
     14          1           0       -2.592719    2.843226    0.265753
     15          1           0       -0.270479    3.723597    0.304280
     16          1           0        1.621847    2.201164    0.065687
     17          1           0       -0.772215   -3.240721    0.351019
     18          1           0        1.360332   -1.405589   -0.662745
     19          1           0        3.505772   -0.591669   -1.335451
     20          1           0        2.299545    0.462193   -2.082297
     21          1           0        3.217313    1.007496   -0.675086
     22          1           0        3.144025   -1.428643    1.055418
     23          1           0        1.549742   -1.265930    1.806095
     24          1           0        2.600940    0.146944    1.642607
 ---------------------------------------------------------------------

 SCF Done:  E(RM062X) =  -538.739139877     A.U. after    1 cycles

 The electronic state is 1-A.
 Alpha  occ. eigenvalues --  -19.67850 -19.62045 -10.68381 -10.56621 -10.56433
 Alpha  occ. eigenvalues --  -10.55436 -10.55304 -10.54861 -10.54833 -10.54817
 Alpha  occ. eigenvalues --  -10.52900 -10.52587  -1.24682  -1.14810  -0.98315
 Alpha  occ. eigenvalues --   -0.91328  -0.87293  -0.83911  -0.78085  -0.75689
 Alpha  occ. eigenvalues --   -0.71922  -0.67811  -0.65732  -0.60911  -0.58814
 Alpha  occ. eigenvalues --   -0.56240  -0.55573  -0.53198  -0.52148  -0.51223
 Alpha  occ. eigenvalues --   -0.50244  -0.49133  -0.47861  -0.45636  -0.44729
 Alpha  occ. eigenvalues --   -0.44102  -0.42970  -0.40724  -0.40459  -0.39091
 Alpha  occ. eigenvalues --   -0.38715  -0.36585  -0.31915  -0.30971
 Alpha virt. eigenvalues --   -0.01819  -0.00868  -0.00154   0.00360   0.00912
 Alpha virt. eigenvalues --    0.01023   0.01592   0.02064   0.02458   0.03009
 Alpha virt. eigenvalues --    0.03496   0.03865   0.04344   0.05479   0.05636

 Mulliken charges:
               1
     1  C   -0.644901
     2  C   -0.238822
     3  C   -0.507526
     4  C   -0.462792
     5  C    1.193296
     6  C    1.127900
     7  C    0.424714
     8  O   -0.904680
     9  O   -0.403818
    10  C    0.239313
    11  C   -1.138617
    12  C   -1.006576
    13  H    0.161339
    14  H    0.153099
    15  H    0.170695
    16  H    0.066668
    17  H    0.216876
    18  H    0.167963
    19  H    0.136064
    20  H    0.238598
    21  H    0.227601
    22  H    0.116917
    23  H    0.414753
    24  H    0.251936
 Sum of Mulliken charges =   0.00000

 Dipole moment (field-independent basis, Debye):
    X=              1.8269    Y=              0.6588    Z=              0.6837  Tot=              2.0589
 Quadrupole moment (field-independent basis, Debye-Ang):
   XX=            -73.8956   YY=            -62.8259   ZZ=            -75.5765
   XY=             -4.2192   XZ=             -3.4947   YZ=             -1.0990

  Exact polarizability:     142.451      -3.273     142.076       1.328       1.624      87.284
 Approx polarizability:     173.804       1.107     175.687       4.018       4.826     113.938

 Summary of Natural Population Analysis:

                                       Natural Population
                Natural  -----------------------------------------------
    Atom  No    Charge         Core      Valence    Rydberg      Total
 -----------------------------------------------------------------------
      C    1   -0.15192      1.99921     4.13343    0.01929     6.15192
      C    2   -0.21705      1.99926     4.20095    0.01685     6.21705
      C    3   -0.17184      1.99927     4.15519    0.01739     6.17184
      C    4   -0.22180      1.99917     4.20384    0.01879     6.22180
      C    5    0.04018      1.99909     3.93658    0.02416     5.95982
      C    6   -0.17839      1.99889     4.15230    0.02720     6.17839
      C    7    0.81125      1.99939     3.15652    0.03283     5.18875
      O    8   -0.60361      1.99977     6.57230    0.03154     8.60361
      O    9   -0.70211      1.99978     6.67728    0.02505     8.70211
      C   10   -0.24819      1.99938     4.23139    0.01742     6.24819
      C   11   -0.57816      1.99949     4.56718    0.01149     6.57816
      C   12   -0.57218      1.99948     4.56140    0.01131     6.57218
      H   13    0.22925      0.00000     0.76789    0.00286     0.77075
      H   14    0.21283      0.00000     0.78471    0.00247     0.78717
      H   15    0.20896      0.00000     0.78849    0.00255     0.79104
      H   16    0.20996      0.00000     0.78757    0.00246     0.79004
      H   17    0.49763      0.00000     0.49914    0.00323     0.50237
      H   18    0.21239      0.00000     0.78347    0.00414     0.78761
      H   19    0.20705      0.00000     0.79102    0.00193     0.79295
      H   20    0.20897      0.00000     0.78934    0.00170     0.79103
      H   21    0.19276      0.00000     0.80522    0.00202     0.80724
      H   22    0.20160      0.00000     0.79644    0.00196     0.79840
      H   23    0.21634      0.00000     0.78175    0.00190     0.78366
      H   24    0.19608      0.00000     0.80209    0.00183     0.80392
 =======================================================================
   * Total *    0.00000     23.99216    63.72546    0.28238    88.00000

                      1                      2                      3
                      A                      A                      A
 Frequencies --     38.8109                86.7690               106.3360
 Red. masses --      6.1434                 3.5793                 3.2550
 Frc consts  --      0.0055                 0.0159                 0.0217
 IR Inten    --      1.4926                 0.3025                 0.3573

                      4                      5                      6
                      A                      A                      A
 Frequencies --    163.0891               191.6324               233.5802
 Red. masses --      3.7631                 3.0180                 1.6577
 Frc consts  --      0.0590                 0.0653                 0.0533
 IR Inten    --      1.5742                 0.6182                 0.3387

                      7                      8                      9
                      A                      A                      A
 Frequencies --    274.8313               279.6232               287.6837
 Red. masses --      1.1772                 1.6801                 3.7315
 Frc consts  --      0.0524                 0.0774                 0.1820
 IR Inten    --      0.2991                 0.6861                 1.1743

                     10                     11                     12
                      A                      A                      A
 Frequencies --    343.1769               381.2940               412.0786
 Red. masses --      2.9639                 5.2086                 3.7153
 Frc consts  --      0.2057                 0.4462                 0.3717
 IR Inten    --      1.2343                 3.7498                 1.7378

                     13                     14                     15
                      A                      A                      A
 Frequencies --    454.5648               536.2984               571.5126
 Red. masses --      2.8136                 4.1552                 3.0033
 Frc consts  --      0.3425                 0.7041                 0.5780
 IR Inten    --      5.5695                 6.6397                 5.4415

                     16                     17                     18
                      A                      A                      A
 Frequencies --    593.6840               596.7552               646.2075
 Red. masses --      1.9241                 1.8022                 5.0438
 Frc consts  --      0.3996                 0.3781                 1.2409
 IR Inten    --     20.4075                41.6022                34.6555

                     19                     20                     21
                      A                      A                      A
 Frequencies --    734.3533               754.9221               791.2742
 Red. masses --      3.4826                 2.9957                 1.6185
 Frc consts  --      1.1065                 1.0059                 0.5971
 IR Inten    --     29.7723                44.1900                38.0328

                     22                     23                     24
                      A                      A                      A
 Frequencies --    806.8100               833.6366               917.4404
 Red. masses --      4.4572                 3.4519                 1.9530
 Frc consts  --      1.7095                 1.4134                 0.9685
 IR Inten    --      8.0016                 4.2536                 1.1831

                     25                     26                     27
                      A                      A                      A
 Frequencies --    921.0326               939.5918               977.7017
 Red. masses --      1.7463                 1.1663                 1.4450
 Frc consts  --      0.8728                 0.6066                 0.8138
 IR Inten    --      0.5262                 1.1254                 0.1593

                     28                     29                     30
                      A                      A                      A
 Frequencies --   1007.3472              1034.1264              1064.1863
 Red. masses --      1.3863                 1.3334                 2.0570
 Frc consts  --      0.8288                 0.8402                 1.3725
 IR Inten    --      1.3470                 0.1570                13.3042

                     31                     32                     33
                      A                      A                      A
 Frequencies --   1094.9849              1102.5319              1139.2259
 Red. masses --      3.0712                 2.0570                 2.4904
 Frc consts  --      2.1695                 1.4732                 1.9043
 IR Inten    --     15.0057                 4.4044                31.1209

                     34                     35                     36
                      A                      A                      A
 Frequencies --   1150.1869              1181.2992              1188.9928
 Red. masses --      2.2700                 1.2533                 1.5449
 Frc consts  --      1.7693                 1.0305                 1.2868
 IR Inten    --     65.7608                 4.1150                 9.8086

                     37                     38                     39
                      A                      A                      A
 Frequencies --   1223.3171              1248.2239              1301.3051
 Red. masses --      1.6240                 1.9633                 2.6634
 Frc consts  --      1.4319                 1.8023                 2.6574
 IR Inten    --    138.6279                30.1371                 0.4650

                     40                     41                     42
                      A                      A                      A
 Frequencies --   1320.0527              1335.9123              1383.4524
 Red. masses --      2.3671                 1.3846                 2.2239
 Frc consts  --      2.4303                 1.4559                 2.5078
 IR Inten    --      6.1046                 1.7941                68.5730

                     43                     44                     45
                      A                      A                      A
 Frequencies --   1391.1437              1400.5603              1419.8521
 Red. masses --      1.3615                 1.4473                 1.2380
 Frc consts  --      1.5524                 1.6726                 1.4705
 IR Inten    --     21.9344                32.0072                 7.1402

                     46                     47                     48
                      A                      A                      A
 Frequencies --   1489.5281              1492.2808              1494.4032
 Red. masses --      1.0455                 1.5818                 1.3438
 Frc consts  --      1.3667                 2.0754                 1.7682
 IR Inten    --      0.2176                17.2724                 7.4150

                     49                     50                     51
                      A                      A                      A
 Frequencies --   1510.7047              1514.4866              1537.9403
 Red. masses --      1.0990                 1.0652                 2.4026
 Frc consts  --      1.4778                 1.4395                 3.3482
 IR Inten    --     12.9615                 4.9418                 6.8513

                     52                     53                     54
                      A                      A                      A
 Frequencies --   1643.8421              1675.5947              1838.6276
 Red. masses --      6.4809                 6.0007                10.1957
 Frc consts  --     10.3183                 9.9264                20.3074
 IR Inten    --      1.7582                23.0094               422.8442

                     55                     56                     57
                      A                      A                      A
 Frequencies --   3055.2190              3062.5790              3114.8826
 Red. masses --      1.0365                 1.0352                 1.0942
 Frc consts  --      5.7006                 5.7209                 6.2548
 IR Inten    --     21.4450                20.7485                13.8754

                     58                     59                     60
                      A                      A                      A
 Frequencies --   3123.3122              3136.5832              3142.8836
 Red. masses --      1.1005                 1.1021                 1.0936
 Frc consts  --      6.3252                 6.3881                 6.3645
 IR Inten    --      0.4454                24.6412                30.7988

                     61                     62                     63
                      A                      A                      A
 Frequencies --   3152.3958              3201.5081              3215.9714
 Red. masses --      1.1003                 1.0864                 1.0892
 Frc consts  --      6.4425                 6.5609                 6.6373
 IR Inten    --     11.4110                 1.5834                 4.3435

                     64                     65                     66
                      A                      A                      A
 Frequencies --   3222.1977              3230.9538              3804.9727
 Red. masses --      1.0932                 1.0975                 1.0643
 Frc consts  --      6.6871                 6.7501                 9.0784
 IR Inten    --      5.6802                 7.1661               113.2797

 - Thermochemistry -
 -------------------
 Temperature   298.150 Kelvin.  Pressure   1.00000 Atm.
 Atom     1 has atomic number  6 and mass  12.00000

 Molecular mass:   164.08373 amu.
 Principal axes and moments of inertia in atomic units:
                           1         2         3
     Eigenvalues --  1691.165581848.740153135.01867
           X            0.97827  -0.20718  -0.00748
           Y            0.20713   0.97829  -0.00682
           Z            0.00873   0.00512   0.99995
 This molecule is an asymmetric top.
 Rotational symmetry number  1.
 Warning -- assumption of classical behavior for rotation
           may cause significant error
 Rotational temperatures (Kelvin)      0.05122     0.04685     0.02763
 Rotational constants (GHZ):           1.06716     0.97620     0.57567
 Zero-point vibrational energy     529480.7 (Joules/Mol)
                                  126.54892 (Kcal/Mol)
 Warning -- explicit consideration of  17 degrees of freedom as
           vibrations may cause significant error
 Vibrational temperatures:     55.84   124.84   152.99   234.65   275.72
          (Kelvin)            336.07   395.42   402.32   413.91   493.76
                              548.60   592.89   654.02   771.61   822.28
                              854.18   858.60   929.75  1056.57  1086.16
                             1138.47  1160.82  1199.42  1319.99  1325.16
                             1351.86  1406.69  1449.35  1487.88  1531.13
                             1575.44  1586.30  1639.09  1654.86  1699.63
                             1710.70  1760.08  1795.92  1872.29  1899.26
                             1922.08  1990.48  2001.55  2015.09  2042.85
                             2143.10  2147.06  2150.11  2173.57  2179.01
                             2212.75  2365.12  2410.81  2645.37  4395.78
                             4406.37  4481.62  4493.75  4512.84  4521.91
                             4535.59  4606.26  4627.07  4636.02  4648.62
                             5474.51

 Zero-point correction=                           0.201669 (Hartree/Particle)
 Thermal correction to Energy=                    0.212928
 Thermal correction to Enthalpy=                  0.213872
 Thermal correction to Gibbs Free Energy=         0.164380
 Sum of electronic and zero-point Energies=           -538.537471
 Sum of electronic and thermal Energies=              -538.526212
 Sum of electronic and thermal Enthalpies=            -538.525268
 Sum of electronic and thermal Free Energies=         -538.574760

                     E (Thermal)             CV                S
                      KCal/Mol        Cal/Mol-Kelvin    Cal/Mol-Kelvin
 Total                  133.614             43.130            104.165
 Electronic               0.000              0.000              0.000
 Translational            0.889              2.981             41.194
 Rotational               0.889              2.981             30.662
 Vibrational            131.837             37.169             32.309
 Vibration     1          0.594              1.981              5.319
 Vibration     2          0.601              1.958              3.732
 Vibration     3          0.605              1.944              3.335
 Vibration     4          0.623              1.888              2.514
 Vibration     5          0.634              1.851              2.212
 Vibration     6          0.654              1.790              1.851
 Vibration     7          0.677              1.720              1.566
 Vibration     8          0.680              1.711              1.536
 Vibration     9          0.685              1.697              1.488
 Vibration    10          0.722              1.589              1.197
 Vibration    11          0.751              1.510              1.034
 Vibration    12          0.776              1.444              0.919
 Vibration    13          0.813              1.351              0.782
 Vibration    14          0.891              1.170              0.573
 Vibration    15          0.928              1.093              0.501
 Vibration    16          0.951              1.045              0.461
 Vibration    17          0.955              1.039              0.455

 Optimization completed.
    -- Stationary point found.
 Normal termination of Gaussian 16 at Wed Apr  2 17:57:57 2025.
