 Gaussian 16, Revision C.01,
 Gaussian 16:  ES64L-G16RevC.01  3-Jul-2019

 ------------------------------------
 # opt freq m062x/aug-cc-pvtz pop=nbo
 ------------------------------------

 -----
 o-OMe
 -----
 Symbolic Z-matrix:
 Charge =  0 Multiplicity = 1

 SCF Done:  E(RM062X) =  -535.301004100     A.U. after   13 cycles
 SCF Done:  E(RM062X) =  -535.330854671     A.U. after   12 cycles
 SCF Done:  E(RM062X) =  -535.334332358     A.U. after   12 cycles
 SCF Done:  E(RM062X) =  -535.334550143     A.U. after   11 cycles
 SCF Done:  E(RM062X) =  -535.334566708     A.U. after   11 cycles
 SCF Done:  E(RM062X) =  -535.334631500     A.U. after   10 cycles
 SCF Done:  E(RM062X) =  -535.334654257     A.U. after   10 cycles
 SCF Done:  E(RM062X) =  -535.334678701     A.U. after   11 cycles
 SCF Done:  E(RM062X) =  -535.334714321     A.U. after   11 cycles
 SCF Done:  E(RM062X) =  -535.334765736     A.U. after   12 cycles
 SCF Done:  E(RM062X) =  -535.334821745     A.U. after   11 cycles
 SCF Done:  E(RM062X) =  -535.334847444     A.U. after   11 cycles
 SCF Done:  E(RM062X) =  -535.334849107     A.U. after   10 cycles
 SCF Done:  E(RM062X) =  -535.334850509     A.U. after    9 cycles
 SCF Done:  E(RM062X) =  -535.334850498     A.U. after    8 cycles
 SCF Done:  E(RM062X) =  -535.334850858     A.U. after   10 cycles
 SCF Done:  E(RM062X) =  -535.334851256     A.U. after    8 cycles
 SCF Done:  E(RM062X) =  -535.334851331     A.U. after    6 cycles
 Optimization completed.
    -- Stationary point found.
 Normal termination of Gaussian 16 at Wed Apr  2 14:31:10 2025.

 ----------------------------------------------------------------------
 #N Geom=AllCheck Guess=TCheck SCRF=Check GenChk RM062X/Aug-CC-pVTZ Fre
 q
 ----------------------------------------------------------------------

 Structure from the checkpoint file:  "o-OMe.chk"
 -----
 o-OMe
 -----
 Charge =  0 Multiplicity = 1

                         Standard orientation:
 ---------------------------------------------------------------------
 Center     Atomic      Atomic             Coordinates (Angstroms)
 Number     Number       Type             X           Y           Z
 ---------------------------------------------------------------------
      1          6           0        0.890537   -1.602547    0.189420
      2          6           0        2.241566   -1.318400    0.237481
      3          6           0        2.673502   -0.013367    0.031157
      4          6           0        1.756434    0.990011   -0.226080
      5          6           0        0.394597    0.709207   -0.265610
      6          6           0       -0.048548   -0.597169   -0.042738
      7          6           0       -1.475702   -1.021681   -0.048254
      8          8           0       -1.830140   -2.157916   -0.218705
      9          8           0       -2.354152   -0.036609    0.203308
     10          8           0       -0.471234    1.709489   -0.596813
     11          6           0       -0.792739    2.583735    0.475641
     12          1           0        0.525989   -2.609994    0.333653
     13          1           0        2.955385   -2.106929    0.427676
     14          1           0        3.729388    0.219745    0.055961
     15          1           0        2.076019    2.004217   -0.424356
     16          1           0       -3.230843   -0.444021    0.185429
     17          1           0        0.107717    3.061512    0.868547
     18          1           0       -1.459654    3.339694    0.071270
     19          1           0       -1.297674    2.037336    1.273399
 ---------------------------------------------------------------------

 SCF Done:  E(RM062X) =  -535.334851331     A.U. after    1 cycles

 The electronic state is 1-A.
 Alpha  occ. eigenvalues --  -19.67644 -19.64820 -19.61958 -10.68493 -10.61764
 Alpha  occ. eigenvalues --  -10.58919 -10.56691 -10.56169 -10.55876 -10.55373
 Alpha  occ. eigenvalues --  -10.55223  -1.24615  -1.19156  -1.14706  -0.97948
 Alpha  occ. eigenvalues --   -0.88047  -0.86243  -0.79475  -0.75855  -0.69739
 Alpha  occ. eigenvalues --   -0.68476  -0.62503  -0.59474  -0.58209  -0.56334
 Alpha  occ. eigenvalues --   -0.55013  -0.54816  -0.53424  -0.51755  -0.50419
 Alpha  occ. eigenvalues --   -0.48663  -0.45622  -0.44589  -0.43286  -0.41797
 Alpha  occ. eigenvalues --   -0.40451  -0.37095  -0.35476  -0.32575  -0.31072
 Alpha virt. eigenvalues --   -0.02332  -0.00831  -0.00048   0.00447   0.00908
 Alpha virt. eigenvalues --    0.01427   0.01929   0.02251   0.03416   0.03980
 Alpha virt. eigenvalues --    0.04059   0.04337   0.05642   0.06568   0.06929

 Mulliken charges:
               1
     1  C   -0.922458
     2  C   -0.038758
     3  C   -0.247592
     4  C   -0.705116
     5  C    0.952375
     6  C    1.516637
     7  C    0.211885
     8  O   -0.844846
     9  O   -0.400825
    10  O   -0.662459
    11  C   -0.926063
    12  H    0.221718
    13  H    0.156530
    14  H    0.164115
    15  H    0.266888
    16  H    0.240293
    17  H    0.311843
    18  H    0.324655
    19  H    0.381179
 Sum of Mulliken charges =   0.00000

 Dipole moment (field-independent basis, Debye):
    X=              1.1070    Y=              2.0515    Z=              1.4638  Tot=              2.7526
 Quadrupole moment (field-independent basis, Debye-Ang):
   XX=            -53.4744   YY=            -63.9177   ZZ=            -66.8471
   XY=             -4.1917   XZ=             -1.5031   YZ=              0.2450

  Exact polarizability:     128.367      -1.429     119.435       0.758      -2.005      65.790
 Approx polarizability:     152.704       1.104     151.179       2.881      -5.414      89.218

 Summary of Natural Population Analysis:

                                       Natural Population
                Natural  -----------------------------------------------
    Atom  No    Charge         Core      Valence    Rydberg      Total
 -----------------------------------------------------------------------
      C    1   -0.14428      1.99922     4.12539    0.01966     6.14428
      C    2   -0.22503      1.99927     4.20886    0.01690     6.22503
      C    3   -0.16918      1.99929     4.15250    0.01739     6.16918
      C    4   -0.25274      1.99915     4.23632    0.01727     6.25274
      C    5    0.34623      1.99884     3.63029    0.02464     5.65377
      C    6   -0.21581      1.99887     4.19064    0.02630     6.21581
      C    7    0.81279      1.99941     3.15450    0.03330     5.18721
      O    8   -0.60533      1.99977     6.57415    0.03141     8.60533
      O    9   -0.69042      1.99978     6.66485    0.02579     8.69042
      O   10   -0.55427      1.99975     6.52666    0.02786     8.55427
      C   11   -0.20982      1.99935     4.19319    0.01728     6.20982
      H   12    0.23284      0.00000     0.76427    0.00289     0.76716
      H   13    0.21435      0.00000     0.78312    0.00254     0.78565
      H   14    0.21132      0.00000     0.78613    0.00256     0.78868
      H   15    0.21996      0.00000     0.77703    0.00300     0.78004
      H   16    0.49618      0.00000     0.50052    0.00330     0.50382
      H   17    0.16477      0.00000     0.83303    0.00220     0.83523
      H   18    0.18934      0.00000     0.80887    0.00179     0.81066
      H   19    0.17910      0.00000     0.81853    0.00237     0.82090
 =======================================================================
   * Total *    0.00000     21.99269    57.72884    0.27847    80.00000

                      1                      2                      3
                      A                      A                      A
 Frequencies --     35.4780               102.6575               131.0052
 Red. masses --      7.3048                 3.7409                 3.4719
 Frc consts  --      0.0054                 0.0232                 0.0351
 IR Inten    --      1.3809                 3.5604                 1.4668

                      4                      5                      6
                      A                      A                      A
 Frequencies --    157.9171               180.7996               229.7343
 Red. masses --      1.1361                 3.1273                 5.7408
 Frc consts  --      0.0167                 0.0602                 0.1785
 IR Inten    --      0.3702                 3.4131                 4.7079

                      7                      8                      9
                      A                      A                      A
 Frequencies --    317.8403               358.0050               389.0628
 Red. masses --      4.4456                 8.4428                 5.4460
 Frc consts  --      0.2646                 0.6375                 0.4857
 IR Inten    --      1.9893                 0.1566                 2.0291

                     10                     11                     12
                      A                      A                      A
 Frequencies --    439.8128               534.8849               566.2329
 Red. masses --      3.3632                 4.6933                 5.4667
 Frc consts  --      0.3833                 0.7911                 1.0327
 IR Inten    --      4.5387                 6.2896                 8.5227

                     13                     14                     15
                      A                      A                      A
 Frequencies --    598.4161               603.7205               642.7691
 Red. masses --      2.9344                 1.3731                 5.1913
 Frc consts  --      0.6191                 0.2949                 1.2637
 IR Inten    --     10.8557                63.4745                37.9225

                     16                     17                     18
                      A                      A                      A
 Frequencies --    737.3876               762.1593               808.2536
 Red. masses --      2.9797                 3.2946                 1.7193
 Frc consts  --      0.9546                 1.1276                 0.6617
 IR Inten    --     63.2677                23.6530                31.0422

                     19                     20                     21
                      A                      A                      A
 Frequencies --    829.6075               843.4298               918.9843
 Red. masses --      3.4314                 4.6961                 1.6732
 Frc consts  --      1.3914                 1.9683                 0.8326
 IR Inten    --      5.4704                14.2645                 2.3125

                     22                     23                     24
                      A                      A                      A
 Frequencies --   1005.8191              1031.6192              1069.6218
 Red. masses --      1.3810                 1.3290                 2.6974
 Frc consts  --      0.8232                 0.8334                 1.8182
 IR Inten    --      0.8903                 0.1750                 9.7526

                     25                     26                     27
                      A                      A                      A
 Frequencies --   1080.4929              1125.6059              1149.1518
 Red. masses --      4.6119                 3.0082                 1.9042
 Frc consts  --      3.1723                 2.2456                 1.4815
 IR Inten    --     59.8736                 9.0758               103.7687

                     28                     29                     30
                      A                      A                      A
 Frequencies --   1172.5151              1180.4661              1212.3135
 Red. masses --      1.1926                 1.2516                 1.4414
 Frc consts  --      0.9660                 1.0276                 1.2482
 IR Inten    --     11.9975                 1.9857                 4.9455

                     31                     32                     33
                      A                      A                      A
 Frequencies --   1225.9632              1283.5217              1293.1246
 Red. masses --      1.6829                 1.7734                 3.0672
 Frc consts  --      1.4903                 1.7214                 3.0219
 IR Inten    --    156.5173                24.6535               111.7841

                     34                     35                     36
                      A                      A                      A
 Frequencies --   1329.3782              1399.3925              1473.4067
 Red. masses --      4.3552                 2.6524                 1.2771
 Frc consts  --      4.5348                 3.0603                 1.6335
 IR Inten    --     31.1582               130.2263                34.6849

                     37                     38                     39
                      A                      A                      A
 Frequencies --   1497.7232              1504.2869              1510.5274
 Red. masses --      1.1352                 1.7735                 1.1564
 Frc consts  --      1.5004                 2.3646                 1.5546
 IR Inten    --      9.2692                36.8585                33.8137

                     40                     41                     42
                      A                      A                      A
 Frequencies --   1539.8166              1647.8370              1676.7254
 Red. masses --      2.6584                 7.1707                 6.3972
 Frc consts  --      3.7137                11.4720                10.5965
 IR Inten    --     62.2391                15.0058                65.7608

                     43                     44                     45
                      A                      A                      A
 Frequencies --   1836.8469              3046.6645              3114.2474
 Red. masses --     10.1945                 1.0344                 1.1034
 Frc consts  --     20.2656                 5.6568                 6.3052
 IR Inten    --    429.9901                42.4074                19.9701

                     46                     47                     48
                      A                      A                      A
 Frequencies --   3167.4465              3203.5503              3217.1970
 Red. masses --      1.1022                 1.0869                 1.0905
 Frc consts  --      6.5150                 6.5719                 6.6504
 IR Inten    --     17.8028                 2.1451                 4.3183

                     49                     50                     51
                      A                      A                      A
 Frequencies --   3222.9588              3233.4916              3806.3675
 Red. masses --      1.0937                 1.0972                 1.0643
 Frc consts  --      6.6938                 6.7592                 9.0852
 IR Inten    --      1.5069                 5.6556               112.4892

 - Thermochemistry -
 -------------------
 Temperature   298.150 Kelvin.  Pressure   1.00000 Atm.
 Atom     1 has atomic number  6 and mass  12.00000

 Molecular mass:   152.04734 amu.
 Principal axes and moments of inertia in atomic units:
                           1         2         3
     Eigenvalues --  1223.156611541.794372655.67600
           X            0.99577  -0.09181  -0.00374
           Y            0.09184   0.99573   0.00929
           Z            0.00287  -0.00959   0.99995
 This molecule is an asymmetric top.
 Rotational symmetry number  1.
 Warning -- assumption of classical behavior for rotation
           may cause significant error
 Rotational temperatures (Kelvin)      0.07081     0.05618     0.03261
 Rotational constants (GHZ):           1.47548     1.17055     0.67958
 Zero-point vibrational energy     391455.4 (Joules/Mol)
                                   93.56009 (Kcal/Mol)
 Warning -- explicit consideration of  14 degrees of freedom as
           vibrations may cause significant error
 Vibrational temperatures:     51.04   147.70   188.49   227.21   260.13
          (Kelvin)            330.54   457.30   515.09   559.77   632.79
                              769.58   814.68   860.99   868.62   924.80
                             1060.94  1096.58  1162.90  1193.62  1213.51
                             1322.21  1447.15  1484.27  1538.95  1554.59
                             1619.50  1653.37  1686.99  1698.43  1744.25
                             1763.89  1846.70  1860.52  1912.68  2013.41
                             2119.90  2154.89  2164.33  2173.31  2215.45
                             2370.87  2412.43  2642.81  4383.47  4480.71
                             4557.25  4609.19  4628.83  4637.12  4652.27
                             5476.51

 Zero-point correction=                           0.149097 (Hartree/Particle)
 Thermal correction to Energy=                    0.158876
 Thermal correction to Enthalpy=                  0.159820
 Thermal correction to Gibbs Free Energy=         0.113177
 Sum of electronic and zero-point Energies=           -535.185754
 Sum of electronic and thermal Energies=              -535.175975
 Sum of electronic and thermal Enthalpies=            -535.175031
 Sum of electronic and thermal Free Energies=         -535.221675

                     E (Thermal)             CV                S
                      KCal/Mol        Cal/Mol-Kelvin    Cal/Mol-Kelvin
 Total                   99.696             36.163             98.170
 Electronic               0.000              0.000              0.000
 Translational            0.889              2.981             40.967
 Rotational               0.889              2.981             29.994
 Vibrational             97.919             30.201             27.208
 Vibration     1          0.594              1.982              5.497
 Vibration     2          0.605              1.947              3.403
 Vibration     3          0.612              1.922              2.931
 Vibration     4          0.621              1.894              2.575
 Vibration     5          0.630              1.866              2.320
 Vibration     6          0.652              1.796              1.881
 Vibration     7          0.704              1.639              1.321
 Vibration     8          0.733              1.559              1.131
 Vibration     9          0.757              1.494              1.004
 Vibration    10          0.800              1.383              0.827
 Vibration    11          0.890              1.173              0.576
 Vibration    12          0.922              1.104              0.512
 Vibration    13          0.956              1.035              0.452
 Vibration    14          0.962              1.024              0.443

 Optimization completed.
    -- Stationary point found.
 Normal termination of Gaussian 16 at Wed Apr  2 15:37:31 2025.
