 Gaussian 16, Revision C.01,
 Gaussian 16:  ES64L-G16RevC.01  3-Jul-2019

 ------------------------------------
 # opt freq m062x/aug-cc-pvtz pop=nbo
 ------------------------------------

 ----
 o-Ph
 ----
 Symbolic Z-matrix:
 Charge =  0 Multiplicity = 1

 SCF Done:  E(RM062X) =  -651.787408978     A.U. after   14 cycles
 SCF Done:  E(RM062X) =  -651.837771524     A.U. after   13 cycles
 SCF Done:  E(RM062X) =  -651.849382791     A.U. after   13 cycles
 SCF Done:  E(RM062X) =  -651.849307154     A.U. after   13 cycles
 SCF Done:  E(RM062X) =  -651.851380259     A.U. after   12 cycles
 SCF Done:  E(RM062X) =  -651.852219465     A.U. after   12 cycles
 SCF Done:  E(RM062X) =  -651.852651833     A.U. after   12 cycles
 SCF Done:  E(RM062X) =  -651.853051953     A.U. after   13 cycles
 SCF Done:  E(RM062X) =  -651.853191115     A.U. after   12 cycles
 SCF Done:  E(RM062X) =  -651.853330227     A.U. after   12 cycles
 SCF Done:  E(RM062X) =  -651.853416627     A.U. after   12 cycles
 SCF Done:  E(RM062X) =  -651.853456024     A.U. after   11 cycles
 SCF Done:  E(RM062X) =  -651.853456920     A.U. after   10 cycles
 SCF Done:  E(RM062X) =  -651.853457008     A.U. after    8 cycles
 Optimization completed.
    -- Stationary point found.
 Normal termination of Gaussian 16 at Wed Apr  2 17:20:54 2025.

 ----------------------------------------------------------------------
 #N Geom=AllCheck Guess=TCheck SCRF=Check GenChk RM062X/Aug-CC-pVTZ Fre
 q
 ----------------------------------------------------------------------

 Structure from the checkpoint file:  "o-Ph.chk"
 ----
 o-Ph
 ----
 Charge =  0 Multiplicity = 1

                         Standard orientation:
 ---------------------------------------------------------------------
 Center     Atomic      Atomic             Coordinates (Angstroms)
 Number     Number       Type             X           Y           Z
 ---------------------------------------------------------------------
      1          6           0       -2.795455    0.138257    0.060796
      2          6           0       -3.273150   -1.156471    0.163698
      3          6           0       -2.374834   -2.213719    0.185972
      4          6           0       -1.012339   -1.969410    0.127331
      5          6           0       -0.510924   -0.672420    0.022960
      6          6           0       -1.428936    0.383657   -0.033676
      7          6           0       -1.043970    1.810775   -0.240188
      8          8           0       -1.595647    2.740558    0.284846
      9          8           0       -0.054557    1.971609   -1.133534
     10          6           0        0.956811   -0.468125    0.063269
     11          6           0        1.519444    0.440387    0.957791
     12          6           0        2.893224    0.605006    1.024771
     13          6           0        3.725219   -0.137019    0.196702
     14          6           0        3.174273   -1.047292   -0.693557
     15          6           0        1.798716   -1.215144   -0.756017
     16          1           0       -3.472807    0.980753    0.035838
     17          1           0       -4.336689   -1.339135    0.224650
     18          1           0       -2.733996   -3.230460    0.269163
     19          1           0       -0.312548   -2.791836    0.195392
     20          1           0        0.117245    2.920748   -1.199284
     21          1           0        0.873308    1.011886    1.613295
     22          1           0        3.316234    1.309012    1.728352
     23          1           0        4.797571   -0.007871    0.247634
     24          1           0        3.815876   -1.625807   -1.344130
     25          1           0        1.368966   -1.915516   -1.460528
 ---------------------------------------------------------------------

 SCF Done:  E(RM062X) =  -651.853457008     A.U. after    1 cycles

 The electronic state is 1-A.
 Alpha  occ. eigenvalues --  -19.67529 -19.62118 -10.68393 -10.57205 -10.56852
 Alpha  occ. eigenvalues --  -10.55974 -10.55809 -10.55795 -10.55484 -10.55394
 Alpha  occ. eigenvalues --  -10.54864 -10.54841 -10.54788 -10.54747 -10.54677
 Alpha  occ. eigenvalues --   -1.24507  -1.14787  -0.99381  -0.96650  -0.89172
 Alpha  occ. eigenvalues --   -0.87572  -0.85142  -0.83037  -0.76061  -0.72225
 Alpha  occ. eigenvalues --   -0.70093  -0.67874  -0.67164  -0.62378  -0.59193
 Alpha  occ. eigenvalues --   -0.58478  -0.56411  -0.55886  -0.53645  -0.52788
 Alpha  occ. eigenvalues --   -0.51767  -0.51374  -0.49697  -0.49347  -0.48645
 Alpha  occ. eigenvalues --   -0.46230  -0.44497  -0.43784  -0.42644  -0.40803
 Alpha  occ. eigenvalues --   -0.40494  -0.40095  -0.36673  -0.33927  -0.32311
 Alpha  occ. eigenvalues --   -0.31525  -0.29349
 Alpha virt. eigenvalues --   -0.02443  -0.00835  -0.00454  -0.00145   0.00241
 Alpha virt. eigenvalues --    0.00878   0.01256   0.01302   0.01866   0.02330
 Alpha virt. eigenvalues --    0.02795   0.03074   0.03526   0.03779   0.04552

 Mulliken charges:
               1
     1  C   -0.654292
     2  C   -0.160847
     3  C   -0.234661
     4  C   -0.832716
     5  C    1.233236
     6  C    0.754962
     7  C    0.511085
     8  O   -0.953252
     9  O   -0.478872
    10  C    1.517877
    11  C   -0.852110
    12  C   -0.288918
    13  C   -0.064017
    14  C   -0.226095
    15  C   -0.936756
    16  H    0.217208
    17  H    0.150319
    18  H    0.162223
    19  H    0.096110
    20  H    0.238811
    21  H    0.154052
    22  H    0.152722
    23  H    0.211755
    24  H    0.132881
    25  H    0.149296
 Sum of Mulliken charges =   0.00000

 Dipole moment (field-independent basis, Debye):
    X=              0.9306    Y=             -1.6641    Z=             -0.7268  Tot=              2.0405
 Quadrupole moment (field-independent basis, Debye-Ang):
   XX=            -77.5599   YY=            -83.6879   ZZ=            -88.5831
   XY=              7.7451   XZ=              0.6272   YZ=             -1.1516

  Exact polarizability:     208.428       7.621     157.534      -5.272      11.561     106.278
 Approx polarizability:     243.060       3.844     210.472      -8.899      22.364     150.429

 Summary of Natural Population Analysis:

                                       Natural Population
                Natural  -----------------------------------------------
    Atom  No    Charge         Core      Valence    Rydberg      Total
 -----------------------------------------------------------------------
      C    1   -0.15700      1.99920     4.13861    0.01918     6.15700
      C    2   -0.20792      1.99926     4.19184    0.01682     6.20792
      C    3   -0.17898      1.99927     4.16268    0.01703     6.17898
      C    4   -0.19500      1.99918     4.17784    0.01798     6.19500
      C    5   -0.00862      1.99904     3.98493    0.02466     6.00862
      C    6   -0.15411      1.99890     4.12862    0.02659     6.15411
      C    7    0.80974      1.99940     3.15721    0.03366     5.19026
      O    8   -0.60226      1.99977     6.57092    0.03158     8.60226
      O    9   -0.68620      1.99978     6.66027    0.02615     8.68620
      C   10   -0.04707      1.99909     4.02348    0.02449     6.04707
      C   11   -0.19213      1.99916     4.17511    0.01786     6.19213
      C   12   -0.19853      1.99927     4.18205    0.01721     6.19853
      C   13   -0.20537      1.99928     4.18892    0.01717     6.20537
      C   14   -0.19746      1.99927     4.18104    0.01716     6.19746
      C   15   -0.19558      1.99916     4.17792    0.01849     6.19558
      H   16    0.22792      0.00000     0.76928    0.00280     0.77208
      H   17    0.21359      0.00000     0.78394    0.00247     0.78641
      H   18    0.21147      0.00000     0.78602    0.00251     0.78853
      H   19    0.21546      0.00000     0.78213    0.00241     0.78454
      H   20    0.49597      0.00000     0.50101    0.00302     0.50403
      H   21    0.21155      0.00000     0.78535    0.00310     0.78845
      H   22    0.21027      0.00000     0.78723    0.00250     0.78973
      H   23    0.20926      0.00000     0.78822    0.00251     0.79074
      H   24    0.20929      0.00000     0.78812    0.00259     0.79071
      H   25    0.21171      0.00000     0.78595    0.00234     0.78829
 =======================================================================
   * Total *    0.00000     29.98902    73.65870    0.35228   104.00000

                      1                      2                      3
                      A                      A                      A
 Frequencies --     40.3598                60.9911                84.6979
 Red. masses --      7.4335                 5.1640                 4.6330
 Frc consts  --      0.0071                 0.0113                 0.0196
 IR Inten    --      1.0166                 0.2345                 0.3877

                      4                      5                      6
                      A                      A                      A
 Frequencies --    109.6430               144.3459               198.5373
 Red. masses --      4.6724                 4.9469                 5.2008
 Frc consts  --      0.0331                 0.0607                 0.1208
 IR Inten    --      0.2008                 1.6493                 1.0182

                      7                      8                      9
                      A                      A                      A
 Frequencies --    271.5647               301.5511               324.4869
 Red. masses --      5.1833                 5.1886                 5.5093
 Frc consts  --      0.2252                 0.2780                 0.3418
 IR Inten    --      0.3154                 0.3750                 1.6542

                     10                     11                     12
                      A                      A                      A
 Frequencies --    395.9590               414.2893               420.2885
 Red. masses --      5.6389                 3.6916                 2.9711
 Frc consts  --      0.5209                 0.3733                 0.3092
 IR Inten    --      3.2256                 2.2456                 0.2729

                     13                     14                     15
                      A                      A                      A
 Frequencies --    519.9252               552.5552               582.8744
 Red. masses --      3.1433                 3.9790                 2.3963
 Frc consts  --      0.5006                 0.7158                 0.4797
 IR Inten    --      9.3115                 3.1181                30.2046

                     16                     17                     18
                      A                      A                      A
 Frequencies --    593.9565               628.1865               630.8107
 Red. masses --      1.5677                 6.7968                 6.1888
 Frc consts  --      0.3259                 1.5803                 1.4510
 IR Inten    --     43.1245                 2.7499                 4.4499

                     19                     20                     21
                      A                      A                      A
 Frequencies --    646.9422               726.3195               734.6492
 Red. masses --      5.1644                 1.8417                 3.4720
 Frc consts  --      1.2735                 0.5724                 1.1041
 IR Inten    --     30.8827                49.3204                 7.7394

                     22                     23                     24
                      A                      A                      A
 Frequencies --    760.0314               776.5624               807.8144
 Red. masses --      3.8380                 1.6615                 3.8849
 Frc consts  --      1.3062                 0.5904                 1.4937
 IR Inten    --     18.0181                79.5379                13.5037

                     25                     26                     27
                      A                      A                      A
 Frequencies --    811.0369               831.5366               881.0255
 Red. masses --      1.9327                 3.6484                 1.2475
 Frc consts  --      0.7490                 1.4863                 0.5705
 IR Inten    --     17.4003                 9.9629                 0.0397

                     28                     29                     30
                      A                      A                      A
 Frequencies --    923.3565               961.1758              1005.1083
 Red. masses --      1.4567                 1.4491                 1.3889
 Frc consts  --      0.7317                 0.7888                 0.8267
 IR Inten    --      0.0927                 1.7359                 1.6102

                     31                     32                     33
                      A                      A                      A
 Frequencies --   1015.5537              1020.1464              1033.6423
 Red. masses --      1.4195                 5.4659                 1.3554
 Frc consts  --      0.8625                 3.3515                 0.8532
 IR Inten    --      0.3718                 1.8174                 0.2662

                     34                     35                     36
                      A                      A                      A
 Frequencies --   1034.2679              1036.0330              1069.5147
 Red. masses --      1.5927                 3.4255                 1.9888
 Frc consts  --      1.0038                 2.1663                 1.3403
 IR Inten    --      1.4024                 1.9821                 0.6278

                     37                     38                     39
                      A                      A                      A
 Frequencies --   1079.1290              1111.6975              1132.8267
 Red. masses --      2.6030                 1.5335                 2.0595
 Frc consts  --      1.7860                 1.1166                 1.5572
 IR Inten    --     12.1788                 6.2416                 2.9624

                     40                     41                     42
                      A                      A                      A
 Frequencies --   1151.4614              1174.4477              1180.5775
 Red. masses --      2.3099                 1.1528                 1.1394
 Frc consts  --      1.8045                 0.9368                 0.9357
 IR Inten    --     87.1671                 0.1813                 1.0435

                     43                     44                     45
                      A                      A                      A
 Frequencies --   1205.6073              1222.8106              1283.9969
 Red. masses --      1.1197                 1.6532                 1.8023
 Frc consts  --      0.9589                 1.4565                 1.7507
 IR Inten    --      0.4500               135.5769                 4.0125

                     46                     47                     48
                      A                      A                      A
 Frequencies --   1302.2076              1316.5221              1331.9825
 Red. masses --      3.8597                 4.6738                 2.5232
 Frc consts  --      3.8562                 4.7728                 2.6376
 IR Inten    --      5.1092                 0.8223                 0.4159

                     49                     50                     51
                      A                      A                      A
 Frequencies --   1354.3956              1391.8527              1480.6243
 Red. masses --      1.4160                 2.8016                 2.3224
 Frc consts  --      1.5304                 3.1977                 2.9997
 IR Inten    --      0.7168               114.7019                14.3478

                     52                     53                     54
                      A                      A                      A
 Frequencies --   1497.3915              1525.3559              1552.5305
 Red. masses --      2.4938                 2.4423                 2.8999
 Frc consts  --      3.2944                 3.3480                 4.1182
 IR Inten    --     17.2995                13.0876                 0.5405

                     55                     56                     57
                      A                      A                      A
 Frequencies --   1636.8771              1654.2509              1672.9084
 Red. masses --      6.2682                 6.4582                 6.2489
 Frc consts  --      9.8951                10.4128                10.3038
 IR Inten    --      2.1502                 1.4571                20.8727

                     58                     59                     60
                      A                      A                      A
 Frequencies --   1676.6975              1840.9843              3187.9321
 Red. masses --      6.0898                10.4511                 1.0886
 Frc consts  --     10.0870                20.8695                 6.5183
 IR Inten    --      1.7229               403.9384                 3.1394

                     61                     62                     63
                      A                      A                      A
 Frequencies --   3195.2831              3200.5596              3205.4113
 Red. masses --      1.0875                 1.0868                 1.0904
 Frc consts  --      6.5416                 6.5590                 6.6010
 IR Inten    --      1.8153                 1.5406                 1.9105

                     64                     65                     66
                      A                      A                      A
 Frequencies --   3211.6968              3213.4407              3218.4263
 Red. masses --      1.0898                 1.0944                 1.0935
 Frc consts  --      6.6231                 6.6581                 6.6737
 IR Inten    --      1.7969                12.4377                 3.1781

                     67                     68                     69
                      A                      A                      A
 Frequencies --   3224.9295              3229.7439              3809.3001
 Red. masses --      1.0984                 1.0979                 1.0643
 Frc consts  --      6.7303                 6.7479                 9.0992
 IR Inten    --     11.2659                 7.8668               104.9261

 - Thermochemistry -
 -------------------
 Temperature   298.150 Kelvin.  Pressure   1.00000 Atm.
 Atom     1 has atomic number  6 and mass  12.00000

 Molecular mass:   198.06808 amu.
 Principal axes and moments of inertia in atomic units:
                           1         2         3
     Eigenvalues --  1789.507463611.021704889.63870
           X            0.99986   0.01695  -0.00085
           Y           -0.01694   0.99980   0.01017
           Z            0.00102  -0.01015   0.99995
 This molecule is an asymmetric top.
 Rotational symmetry number  1.
 Warning -- assumption of classical behavior for rotation
           may cause significant error
 Rotational temperatures (Kelvin)      0.04840     0.02399     0.01771
 Rotational constants (GHZ):           1.00851     0.49979     0.36910
 Zero-point vibrational energy     519320.4 (Joules/Mol)
                                  124.12057 (Kcal/Mol)
 Warning -- explicit consideration of  16 degrees of freedom as
           vibrations may cause significant error
 Vibrational temperatures:     58.07    87.75   121.86   157.75   207.68
          (Kelvin)            285.65   390.72   433.86   466.86   569.70
                              596.07   604.70   748.06   795.00   838.63
                              854.57   903.82   907.60   930.81  1045.01
                             1057.00  1093.52  1117.30  1162.26  1166.90
                             1196.40  1267.60  1328.50  1382.92  1446.13
                             1461.16  1467.76  1487.18  1488.08  1490.62
                             1538.79  1552.63  1599.48  1629.88  1656.70
                             1689.77  1698.59  1734.60  1759.35  1847.39
                             1873.59  1894.18  1916.43  1948.67  2002.57
                             2130.29  2154.41  2194.65  2233.75  2355.10
                             2380.10  2406.94  2412.39  2648.77  4586.72
                             4597.30  4604.89  4611.87  4620.92  4623.42
                             4630.60  4639.95  4646.88  5480.73

 Zero-point correction=                           0.197799 (Hartree/Particle)
 Thermal correction to Energy=                    0.209546
 Thermal correction to Enthalpy=                  0.210490
 Thermal correction to Gibbs Free Energy=         0.158841
 Sum of electronic and zero-point Energies=           -651.655658
 Sum of electronic and thermal Energies=              -651.643911
 Sum of electronic and thermal Enthalpies=            -651.642967
 Sum of electronic and thermal Free Energies=         -651.694616

                     E (Thermal)             CV                S
                      KCal/Mol        Cal/Mol-Kelvin    Cal/Mol-Kelvin
 Total                  131.492             46.099            108.704
 Electronic               0.000              0.000              0.000
 Translational            0.889              2.981             41.755
 Rotational               0.889              2.981             31.825
 Vibrational            129.715             40.137             35.125
 Vibration     1          0.594              1.981              5.241
 Vibration     2          0.597              1.973              4.425
 Vibration     3          0.601              1.960              3.779
 Vibration     4          0.606              1.941              3.275
 Vibration     5          0.616              1.909              2.745
 Vibration     6          0.637              1.842              2.147
 Vibration     7          0.675              1.726              1.586
 Vibration     8          0.694              1.671              1.408
 Vibration     9          0.709              1.626              1.287
 Vibration    10          0.763              1.479              0.978
 Vibration    11          0.778              1.439              0.912
 Vibration    12          0.783              1.426              0.891
 Vibration    13          0.875              1.206              0.610
 Vibration    14          0.908              1.134              0.539
 Vibration    15          0.940              1.068              0.480
 Vibration    16          0.952              1.045              0.460

 Optimization completed.
    -- Stationary point found.
 Normal termination of Gaussian 16 at Wed Apr  2 19:46:36 2025.
