 Gaussian 16, Revision C.01,
 Gaussian 16:  ES64L-G16RevC.01  3-Jul-2019

 ------------------------------------
 # opt freq m062x/aug-cc-pvtz pop=nbo
 ------------------------------------

 ---
 p-F
 ---
 Symbolic Z-matrix:
 Charge =  0 Multiplicity = 1

 SCF Done:  E(RM062X) =  -520.042451430     A.U. after   14 cycles
 SCF Done:  E(RM062X) =  -520.069487419     A.U. after   12 cycles
 SCF Done:  E(RM062X) =  -520.071620701     A.U. after   11 cycles
 SCF Done:  E(RM062X) =  -520.071756381     A.U. after   10 cycles
 SCF Done:  E(RM062X) =  -520.071766225     A.U. after    9 cycles
 Optimization completed.
    -- Stationary point found.
 Normal termination of Gaussian 16 at Wed Apr  2 21:24:20 2025.

 ----------------------------------------------------------------------
 #N Geom=AllCheck Guess=TCheck SCRF=Check GenChk RM062X/Aug-CC-pVTZ Fre
 q
 ----------------------------------------------------------------------

 Structure from the checkpoint file:  "p-F.chk"
 ---
 p-F
 ---
 Charge =  0 Multiplicity = 1

                         Standard orientation:
 ---------------------------------------------------------------------
 Center     Atomic      Atomic             Coordinates (Angstroms)
 Number     Number       Type             X           Y           Z
 ---------------------------------------------------------------------
      1          6           0       -0.070057    1.226181   -0.000006
      2          6           0       -1.452711    1.209626   -0.000004
      3          6           0       -2.092914   -0.016589    0.000000
      4          6           0       -1.408628   -1.217567    0.000002
      5          6           0       -0.024453   -1.186612   -0.000001
      6          6           0        0.646646    0.032877   -0.000005
      7          6           0        2.127344    0.113340   -0.000011
      8          8           0        2.758154    1.135887    0.000015
      9          8           0        2.721252   -1.095948   -0.000002
     10          9           0       -3.430716   -0.041291    0.000006
     11          1           0        0.475272    2.159450   -0.000010
     12          1           0       -2.038508    2.117092   -0.000005
     13          1           0       -1.961019   -2.145739    0.000007
     14          1           0        0.539656   -2.107522   -0.000002
     15          1           0        3.674427   -0.938708    0.000013
 ---------------------------------------------------------------------

 SCF Done:  E(RM062X) =  -520.071766225     A.U. after    1 cycles

 The electronic state is 1-A.
 Alpha  occ. eigenvalues --  -25.27252 -19.68252 -19.62546 -10.68878 -10.64988
 Alpha  occ. eigenvalues --  -10.57404 -10.57216 -10.57131 -10.56648 -10.56609
 Alpha  occ. eigenvalues --   -1.39252  -1.25063  -1.15347  -0.99647  -0.88741
 Alpha  occ. eigenvalues --   -0.87861  -0.76931  -0.73556  -0.69616  -0.64903
 Alpha  occ. eigenvalues --   -0.61904  -0.59862  -0.58711  -0.58073  -0.55151
 Alpha  occ. eigenvalues --   -0.54263  -0.52115  -0.50815  -0.49941  -0.46955
 Alpha  occ. eigenvalues --   -0.45697  -0.42681  -0.41175  -0.37153  -0.33828
 Alpha  occ. eigenvalues --   -0.32452
 Alpha virt. eigenvalues --   -0.02792  -0.00868  -0.00504   0.00186   0.00627
 Alpha virt. eigenvalues --    0.02105   0.02768   0.02994   0.03658   0.05257
 Alpha virt. eigenvalues --    0.05879   0.06026   0.06130   0.07060   0.07921

 Mulliken charges:
               1
     1  C   -0.895690
     2  C   -0.465518
     3  C    0.744421
     4  C   -0.562512
     5  C   -0.475416
     6  C    1.873675
     7  C    0.451453
     8  O   -0.918576
     9  O   -0.519284
    10  F   -0.527426
    11  H    0.185893
    12  H    0.293592
    13  H    0.290575
    14  H    0.217233
    15  H    0.307579
 Sum of Mulliken charges =   0.00000

 Dipole moment (field-independent basis, Debye):
    X=              0.0086    Y=             -1.4014    Z=              0.0000  Tot=              1.4014
 Quadrupole moment (field-independent basis, Debye-Ang):
   XX=            -58.2222   YY=            -52.8809   ZZ=            -58.1078
   XY=             -6.3241   XZ=              0.0000   YZ=             -0.0001

  Exact polarizability:     118.059       1.273      93.991       0.000       0.000      51.362
 Approx polarizability:     139.449       3.595     128.387       0.000       0.000      68.795

 Summary of Natural Population Analysis:

                                       Natural Population
                Natural  -----------------------------------------------
    Atom  No    Charge         Core      Valence    Rydberg      Total
 -----------------------------------------------------------------------
      C    1   -0.13130      1.99922     4.11548    0.01660     6.13130
      C    2   -0.27816      1.99914     4.26105    0.01797     6.27816
      C    3    0.43635      1.99862     3.54012    0.02490     5.56365
      C    4   -0.27992      1.99915     4.26260    0.01817     6.27992
      C    5   -0.14087      1.99922     4.12510    0.01655     6.14087
      C    6   -0.20006      1.99900     4.17452    0.02654     6.20006
      C    7    0.80560      1.99939     3.16139    0.03363     5.19440
      O    8   -0.60316      1.99977     6.57148    0.03191     8.60316
      O    9   -0.70209      1.99978     6.67738    0.02492     8.70209
      F   10   -0.33524      1.99993     7.32640    0.00891     9.33524
      H   11    0.23705      0.00000     0.75995    0.00300     0.76295
      H   12    0.23073      0.00000     0.76646    0.00281     0.76927
      H   13    0.23020      0.00000     0.76697    0.00283     0.76980
      H   14    0.23153      0.00000     0.76543    0.00304     0.76847
      H   15    0.49935      0.00000     0.49733    0.00332     0.50065
 =======================================================================
   * Total *    0.00000     19.99323    51.77165    0.23512    72.00000

                      1                      2                      3
                      A                      A                      A
 Frequencies --     68.6791               111.1917               199.0157
 Red. masses --      7.0224                 8.5521                 7.4967
 Frc consts  --      0.0195                 0.0623                 0.1749
 IR Inten    --      1.0988                 0.2874                 1.5340

                      4                      5                      6
                      A                      A                      A
 Frequencies --    300.3844               351.7471               406.7565
 Red. masses --      6.0806                10.9091                 7.4840
 Frc consts  --      0.3233                 0.7952                 0.7296
 IR Inten    --      3.3984                 1.1724                 6.4185

                      7                      8                      9
                      A                      A                      A
 Frequencies --    425.2356               507.6271               512.1682
 Red. masses --      2.9523                 2.5296                 5.8322
 Frc consts  --      0.3145                 0.3841                 0.9014
 IR Inten    --      0.2475                31.2067                 5.0857

                     10                     11                     12
                      A                      A                      A
 Frequencies --    587.9718               602.9669               644.5404
 Red. masses --      1.2133                 6.1788                 7.2282
 Frc consts  --      0.2471                 1.3236                 1.7692
 IR Inten    --     50.4188                64.8598                 0.5909

                     13                     14                     15
                      A                      A                      A
 Frequencies --    708.2586               744.2941               799.0594
 Red. masses --      3.2697                 4.2080                 4.2886
 Frc consts  --      0.9664                 1.3734                 1.6133
 IR Inten    --     30.6932                10.1094                67.6587

                     16                     17                     18
                      A                      A                      A
 Frequencies --    851.5397               864.3777               893.3980
 Red. masses --      1.2448                 6.3013                 1.9254
 Frc consts  --      0.5318                 2.7739                 0.9054
 IR Inten    --      0.0944                23.6051                29.0577

                     19                     20                     21
                      A                      A                      A
 Frequencies --    997.8936              1011.2758              1036.4765
 Red. masses --      1.3754                 1.3590                 2.5215
 Frc consts  --      0.8069                 0.8189                 1.5960
 IR Inten    --      0.0034                 0.0147                 5.7532

                     22                     23                     24
                      A                      A                      A
 Frequencies --   1114.8830              1137.7697              1174.6687
 Red. masses --      1.3329                 3.7259                 1.1478
 Frc consts  --      0.9762                 2.8418                 0.9331
 IR Inten    --     37.1565                86.1017                59.5880

                     25                     26                     27
                      A                      A                      A
 Frequencies --   1217.1096              1294.0739              1315.3723
 Red. masses --      1.7132                 4.0902                 1.3877
 Frc consts  --      1.4953                 4.0356                 1.4146
 IR Inten    --    189.0153               106.5902                10.3705

                     28                     29                     30
                      A                      A                      A
 Frequencies --   1334.5559              1395.8150              1460.0661
 Red. masses --      6.2308                 3.0993                 3.7110
 Frc consts  --      6.5384                 3.5578                 4.6611
 IR Inten    --      0.8933               205.4210                24.1120

                     31                     32                     33
                      A                      A                      A
 Frequencies --   1563.7060              1666.8326              1679.6138
 Red. masses --      3.1065                 7.9126                 6.4339
 Frc consts  --      4.4754                12.9526                10.6942
 IR Inten    --     52.9920                 7.1459               131.5136

                     34                     35                     36
                      A                      A                      A
 Frequencies --   1847.9645              3225.2859              3230.4651
 Red. masses --     10.3972                 1.0894                 1.0895
 Frc consts  --     20.9196                 6.6768                 6.6992
 IR Inten    --    399.4865                 0.1334                 0.2666

                     37                     38                     39
                      A                      A                      A
 Frequencies --   3238.7582              3243.1737              3818.8942
 Red. masses --      1.0959                 1.0957                 1.0646
 Frc consts  --      6.7731                 6.7905                 9.1480
 IR Inten    --      1.5364                 1.2068               129.5735

 - Thermochemistry -
 -------------------
 Temperature   298.150 Kelvin.  Pressure   1.00000 Atm.
 Atom     1 has atomic number  6 and mass  12.00000

 Molecular mass:   140.02736 amu.
 Principal axes and moments of inertia in atomic units:
                           1         2         3
     Eigenvalues --   462.547832310.195502772.74333
           X            0.99997  -0.00736   0.00000
           Y            0.00736   0.99997   0.00000
           Z            0.00000   0.00000   1.00000
 This molecule is an asymmetric top.
 Rotational symmetry number  1.
 Warning -- assumption of classical behavior for rotation
           may cause significant error
 Rotational temperatures (Kelvin)      0.18725     0.03749     0.03124
 Rotational constants (GHZ):           3.90174     0.78121     0.65089
 Zero-point vibrational energy     284614.7 (Joules/Mol)
                                   68.02455 (Kcal/Mol)
 Warning -- explicit consideration of  11 degrees of freedom as
           vibrations may cause significant error
 Vibrational temperatures:     98.81   159.98   286.34   432.19   506.09
          (Kelvin)            585.23   611.82   730.36   736.90   845.96
                              867.53   927.35  1019.03  1070.87  1149.67
                             1225.18  1243.65  1285.40  1435.75  1455.00
                             1491.26  1604.07  1637.00  1690.09  1751.15
                             1861.88  1892.53  1920.13  2008.27  2100.71
                             2249.82  2398.20  2416.59  2658.81  4640.47
                             4647.92  4659.85  4666.20  5494.54

 Zero-point correction=                           0.108404 (Hartree/Particle)
 Thermal correction to Energy=                    0.116276
 Thermal correction to Enthalpy=                  0.117220
 Thermal correction to Gibbs Free Energy=         0.075146
 Sum of electronic and zero-point Energies=           -519.963362
 Sum of electronic and thermal Energies=              -519.955490
 Sum of electronic and thermal Enthalpies=            -519.954546
 Sum of electronic and thermal Free Energies=         -519.996620

                     E (Thermal)             CV                S
                      KCal/Mol        Cal/Mol-Kelvin    Cal/Mol-Kelvin
 Total                   72.964             29.943             88.552
 Electronic               0.000              0.000              0.000
 Translational            0.889              2.981             40.722
 Rotational               0.889              2.981             29.473
 Vibrational             71.187             23.981             18.358
 Vibration     1          0.598              1.969              4.191
 Vibration     2          0.607              1.940              3.248
 Vibration     3          0.637              1.841              2.142
 Vibration     4          0.693              1.673              1.415
 Vibration     5          0.728              1.572              1.158
 Vibration     6          0.772              1.456              0.938
 Vibration     7          0.787              1.415              0.874
 Vibration     8          0.863              1.233              0.639
 Vibration     9          0.867              1.223              0.628
 Vibration    10          0.945              1.057              0.471
 Vibration    11          0.961              1.026              0.445

 Optimization completed.
    -- Stationary point found.
 Normal termination of Gaussian 16 at Wed Apr  2 21:50:03 2025.
