 Gaussian 16, Revision C.01,
 Gaussian 16:  ES64L-G16RevC.01  3-Jul-2019

 ------------------------------------
 # opt freq m062x/aug-cc-pvtz pop=nbo
 ------------------------------------

 -----
 p-OMe
 -----
 Symbolic Z-matrix:
 Charge =  0 Multiplicity = 1

 SCF Done:  E(RM062X) =  -535.315159262     A.U. after   14 cycles
 SCF Done:  E(RM062X) =  -535.344321044     A.U. after   12 cycles
 SCF Done:  E(RM062X) =  -535.347067343     A.U. after   12 cycles
 SCF Done:  E(RM062X) =  -535.347200521     A.U. after   11 cycles
 SCF Done:  E(RM062X) =  -535.347227173     A.U. after   10 cycles
 SCF Done:  E(RM062X) =  -535.347230326     A.U. after    8 cycles
 Optimization completed.
    -- Stationary point found.
 Normal termination of Gaussian 16 at Wed Apr  2 13:33:49 2025.

 ----------------------------------------------------------------------
 #N Geom=AllCheck Guess=TCheck SCRF=Check GenChk RM062X/Aug-CC-pVTZ Fre
 q
 ----------------------------------------------------------------------

 Structure from the checkpoint file:  "p-OMe.chk"
 -----
 p-OMe
 -----
 Charge =  0 Multiplicity = 1

                         Standard orientation:
 ---------------------------------------------------------------------
 Center     Atomic      Atomic             Coordinates (Angstroms)
 Number     Number       Type             X           Y           Z
 ---------------------------------------------------------------------
      1          6           0        0.506971    1.312067   -0.000006
      2          6           0       -0.863202    1.431355   -0.000012
      3          6           0       -1.663070    0.284769   -0.000021
      4          6           0       -1.074277   -0.977851   -0.000030
      5          6           0        0.308845   -1.084317   -0.000024
      6          6           0        1.106498    0.051093   -0.000011
      7          6           0        2.582619   -0.022611   -0.000004
      8          8           0        3.320761    0.927124    0.000042
      9          8           0        3.052255   -1.288098    0.000001
     10          8           0       -2.996217    0.497699   -0.000038
     11          6           0       -3.849247   -0.628426    0.000064
     12          1           0        1.140927    2.187895    0.000004
     13          1           0       -1.348435    2.396939   -0.000008
     14          1           0       -1.676661   -1.872897   -0.000047
     15          1           0        0.771173   -2.060822   -0.000031
     16          1           0        4.015868   -1.223310    0.000027
     17          1           0       -4.862543   -0.239703    0.000143
     18          1           0       -3.692858   -1.239206   -0.891443
     19          1           0       -3.692698   -1.239160    0.891574
 ---------------------------------------------------------------------

 SCF Done:  E(RM062X) =  -535.347230326     A.U. after    1 cycles

 The electronic state is 1-A.
 Alpha  occ. eigenvalues --  -19.67267 -19.67236 -19.61468 -10.67784 -10.62202
 Alpha  occ. eigenvalues --  -10.60253 -10.56204 -10.55744 -10.55634 -10.55400
 Alpha  occ. eigenvalues --  -10.54923  -1.23981  -1.21339  -1.14222  -0.97966
 Alpha  occ. eigenvalues --   -0.88271  -0.86388  -0.81714  -0.74083  -0.71570
 Alpha  occ. eigenvalues --   -0.67257  -0.63142  -0.59969  -0.58435  -0.56791
 Alpha  occ. eigenvalues --   -0.56455  -0.54083  -0.53204  -0.51305  -0.49678
 Alpha  occ. eigenvalues --   -0.49125  -0.46517  -0.45763  -0.44130  -0.41250
 Alpha  occ. eigenvalues --   -0.40424  -0.39792  -0.36097  -0.32568  -0.29463
 Alpha virt. eigenvalues --   -0.01555  -0.01038  -0.00062   0.00600   0.00744
 Alpha virt. eigenvalues --    0.01381   0.01389   0.02454   0.03392   0.03650
 Alpha virt. eigenvalues --    0.04053   0.04851   0.05773   0.05937   0.07123

 Mulliken charges:
               1
     1  C   -0.743920
     2  C   -0.441700
     3  C    1.263001
     4  C   -0.178675
     5  C   -0.597814
     6  C    1.747342
     7  C    0.403576
     8  O   -0.930008
     9  O   -0.537364
    10  O   -0.888909
    11  C   -1.029085
    12  H   -0.008226
    13  H    0.394446
    14  H    0.217464
    15  H    0.004199
    16  H    0.291389
    17  H    0.306308
    18  H    0.363995
    19  H    0.363981
 Sum of Mulliken charges =   0.00000

 Dipole moment (field-independent basis, Debye):
    X=             -2.7084    Y=             -2.4294    Z=              0.0001  Tot=              3.6383
 Quadrupole moment (field-independent basis, Debye-Ang):
   XX=            -57.0831   YY=            -61.3527   ZZ=            -66.1371
   XY=             -2.3679   XZ=             -0.0006   YZ=             -0.0001

  Exact polarizability:     154.982       3.610     105.872       0.000       0.000      63.867
 Approx polarizability:     169.845       3.720     144.912       0.001       0.000      85.374

 Summary of Natural Population Analysis:

                                       Natural Population
                Natural  -----------------------------------------------
    Atom  No    Charge         Core      Valence    Rydberg      Total
 -----------------------------------------------------------------------
      C    1   -0.13251      1.99922     4.11665    0.01664     6.13251
      C    2   -0.24999      1.99917     4.23273    0.01809     6.24999
      C    3    0.34338      1.99893     3.63140    0.02628     5.65662
      C    4   -0.30721      1.99915     4.29253    0.01553     6.30721
      C    5   -0.13594      1.99922     4.11640    0.02032     6.13594
      C    6   -0.21608      1.99899     4.19064    0.02646     6.21608
      C    7    0.80569      1.99938     3.16118    0.03376     5.19431
      O    8   -0.61071      1.99977     6.57917    0.03177     8.61071
      O    9   -0.70529      1.99979     6.68074    0.02477     8.70529
      O   10   -0.51375      1.99974     6.48643    0.02758     8.51375
      C   11   -0.21802      1.99936     4.20547    0.01319     6.21802
      H   12    0.23377      0.00000     0.76328    0.00296     0.76623
      H   13    0.22323      0.00000     0.77247    0.00430     0.77677
      H   14    0.21835      0.00000     0.77859    0.00307     0.78165
      H   15    0.22714      0.00000     0.76978    0.00308     0.77286
      H   16    0.49719      0.00000     0.49944    0.00337     0.50281
      H   17    0.19370      0.00000     0.80206    0.00424     0.80630
      H   18    0.17353      0.00000     0.82393    0.00255     0.82647
      H   19    0.17353      0.00000     0.82393    0.00255     0.82647
 =======================================================================
   * Total *    0.00000     21.99271    57.72680    0.28049    80.00000

                      1                      2                      3
                      A                      A                      A
 Frequencies --     66.4976                80.7220               136.9611
 Red. masses --      6.5207                 4.0230                 4.5353
 Frc consts  --      0.0170                 0.0154                 0.0501
 IR Inten    --      0.0331                 1.2105                 2.5672

                      4                      5                      6
                      A                      A                      A
 Frequencies --    172.3845               251.8990               281.5810
 Red. masses --      5.3933                 1.3553                 3.8262
 Frc consts  --      0.0944                 0.0507                 0.1787
 IR Inten    --      0.2522                 0.5973                 4.8965

                      7                      8                      9
                      A                      A                      A
 Frequencies --    313.3083               340.8840               427.7668
 Red. masses --      2.6013                 7.7045                 2.9599
 Frc consts  --      0.1504                 0.5275                 0.3191
 IR Inten    --      3.2862                 0.2966                 0.1859

                     10                     11                     12
                      A                      A                      A
 Frequencies --    487.7673               516.0442               516.5417
 Red. masses --      5.7267                 4.6358                 2.5071
 Frc consts  --      0.8027                 0.7274                 0.3941
 IR Inten    --      2.2421                11.8743                30.1070

                     13                     14                     15
                      A                      A                      A
 Frequencies --    593.2060               612.2747               646.4114
 Red. masses --      1.2060                 5.3193                 6.9337
 Frc consts  --      0.2500                 1.1749                 1.7070
 IR Inten    --     50.4532                65.8693                 3.8744

                     16                     17                     18
                      A                      A                      A
 Frequencies --    717.2718               740.2270               801.4416
 Red. masses --      3.1428                 4.0693                 4.5019
 Frc consts  --      0.9527                 1.3137                 1.7037
 IR Inten    --     31.2277                 8.0579                64.6899

                     19                     20                     21
                      A                      A                      A
 Frequencies --    846.8875               848.7793               887.6092
 Red. masses --      5.4637                 1.2905                 1.8807
 Frc consts  --      2.3088                 0.5478                 0.8730
 IR Inten    --     15.9764                 0.5940                24.9417

                     22                     23                     24
                      A                      A                      A
 Frequencies --    994.3436              1018.7748              1031.6633
 Red. masses --      1.3723                 1.3447                 2.7678
 Frc consts  --      0.7994                 0.8223                 1.7356
 IR Inten    --      0.1729                 0.0282                 1.1806

                     25                     26                     27
                      A                      A                      A
 Frequencies --   1104.6287              1127.5746              1143.1243
 Red. masses --      6.5548                 1.9731                 1.8394
 Frc consts  --      4.7124                 1.4780                 1.4161
 IR Inten    --     46.5962               117.5208                18.0950

                     28                     29                     30
                      A                      A                      A
 Frequencies --   1185.1710              1191.6522              1216.1034
 Red. masses --      1.2789                 1.2258                 1.4417
 Frc consts  --      1.0584                 1.0255                 1.2562
 IR Inten    --      1.1984               202.1035                11.4703

                     31                     32                     33
                      A                      A                      A
 Frequencies --   1226.8479              1310.9717              1330.1282
 Red. masses --      1.5604                 5.1315                 1.3335
 Frc consts  --      1.3838                 5.1961                 1.3901
 IR Inten    --    123.9646               198.9245                34.1273

                     34                     35                     36
                      A                      A                      A
 Frequencies --   1358.2108              1393.5192              1469.5804
 Red. masses --      6.0563                 2.8659                 3.4600
 Frc consts  --      6.5826                 3.2790                 4.4026
 IR Inten    --    106.7358               203.9874                50.4786

                     37                     38                     39
                      A                      A                      A
 Frequencies --   1485.1224              1508.3687              1516.2188
 Red. masses --      1.2018                 1.0434                 1.0612
 Frc consts  --      1.5618                 1.3986                 1.4373
 IR Inten    --      2.1769                 8.8948                20.6383

                     40                     41                     42
                      A                      A                      A
 Frequencies --   1566.6198              1648.0342              1680.9552
 Red. masses --      2.9089                 7.3821                 6.2192
 Frc consts  --      4.2064                11.8130                10.3538
 IR Inten    --     87.5680                42.4501               194.4250

                     43                     44                     45
                      A                      A                      A
 Frequencies --   1839.2786              3047.1038              3110.0233
 Red. masses --     10.1901                 1.0346                 1.1061
 Frc consts  --     20.3107                 5.6600                 6.3033
 IR Inten    --    444.9555                38.1294                23.1394

                     46                     47                     48
                      A                      A                      A
 Frequencies --   3175.1971              3218.7023              3227.6963
 Red. masses --      1.1005                 1.0886                 1.0896
 Frc consts  --      6.5370                 6.6445                 6.6880
 IR Inten    --     14.2593                 0.0829                 0.4929

                     49                     50                     51
                      A                      A                      A
 Frequencies --   3232.0811              3246.2535              3822.9458
 Red. masses --      1.0959                 1.0932                 1.0646
 Frc consts  --      6.7449                 6.7878                 9.1670
 IR Inten    --      1.5638                 3.3326               129.2636

 - Thermochemistry -
 -------------------
 Temperature   298.150 Kelvin.  Pressure   1.00000 Atm.
 Atom     1 has atomic number  6 and mass  12.00000

 Molecular mass:   152.04734 amu.
 Principal axes and moments of inertia in atomic units:
                           1         2         3
     Eigenvalues --   519.210263131.709673639.47815
           X            0.99996   0.00869   0.00000
           Y           -0.00869   0.99996   0.00000
           Z            0.00000   0.00000   1.00000
 This molecule is an asymmetric top.
 Rotational symmetry number  1.
 Warning -- assumption of classical behavior for rotation
           may cause significant error
 Rotational temperatures (Kelvin)      0.16682     0.02766     0.02380
 Rotational constants (GHZ):           3.47594     0.57628     0.49588
 Zero-point vibrational energy     393053.2 (Joules/Mol)
                                   93.94197 (Kcal/Mol)
 Warning -- explicit consideration of  14 degrees of freedom as
           vibrations may cause significant error
 Vibrational temperatures:     95.68   116.14   197.06   248.02   362.43
          (Kelvin)            405.13   450.78   490.46   615.46   701.79
                              742.47   743.19   853.49   880.93   930.04
                             1031.99  1065.02  1153.10  1218.48  1221.20
                             1277.07  1430.64  1465.79  1484.33  1589.31
                             1622.33  1644.70  1705.20  1714.52  1749.70
                             1765.16  1886.20  1913.76  1954.16  2004.96
                             2114.40  2136.76  2170.21  2181.50  2254.02
                             2371.15  2418.52  2646.31  4384.10  4474.63
                             4568.40  4630.99  4643.94  4650.24  4670.63
                             5500.37

 Zero-point correction=                           0.149706 (Hartree/Particle)
 Thermal correction to Energy=                    0.159255
 Thermal correction to Enthalpy=                  0.160199
 Thermal correction to Gibbs Free Energy=         0.114413
 Sum of electronic and zero-point Energies=           -535.197524
 Sum of electronic and thermal Energies=              -535.187975
 Sum of electronic and thermal Enthalpies=            -535.187031
 Sum of electronic and thermal Free Energies=         -535.232818

                     E (Thermal)             CV                S
                      KCal/Mol        Cal/Mol-Kelvin    Cal/Mol-Kelvin
 Total                   99.934             36.013             96.366
 Electronic               0.000              0.000              0.000
 Translational            0.889              2.981             40.967
 Rotational               0.889              2.981             30.160
 Vibrational             98.157             30.052             25.239
 Vibration     1          0.598              1.970              4.254
 Vibration     2          0.600              1.962              3.873
 Vibration     3          0.614              1.916              2.846
 Vibration     4          0.626              1.876              2.409
 Vibration     5          0.664              1.760              1.717
 Vibration     6          0.681              1.708              1.524
 Vibration     7          0.701              1.648              1.345
 Vibration     8          0.720              1.594              1.208
 Vibration     9          0.789              1.410              0.866
 Vibration    10          0.844              1.277              0.689
 Vibration    11          0.871              1.214              0.619
 Vibration    12          0.872              1.213              0.618
 Vibration    13          0.951              1.046              0.461
 Vibration    14          0.972              1.006              0.429

 Optimization completed.
    -- Stationary point found.
 Normal termination of Gaussian 16 at Wed Apr  2 14:21:49 2025.
