 Gaussian 16, Revision C.01,
 Gaussian 16:  ES64L-G16RevC.01  3-Jul-2019

 ------------------------------------
 # opt freq m062x/aug-cc-pvtz pop=nbo
 ------------------------------------

 -
 1
 -
 Symbolic Z-matrix:
 Charge =  0 Multiplicity = 1

 SCF Done:  E(RM062X) =  -420.789255037     A.U. after   13 cycles
 SCF Done:  E(RM062X) =  -420.816795728     A.U. after   12 cycles
 SCF Done:  E(RM062X) =  -420.818762939     A.U. after   11 cycles
 SCF Done:  E(RM062X) =  -420.818893093     A.U. after   10 cycles
 SCF Done:  E(RM062X) =  -420.818905588     A.U. after    9 cycles
 SCF Done:  E(RM062X) =  -420.818906317     A.U. after    7 cycles
 Optimization completed.
    -- Stationary point found.
 Normal termination of Gaussian 16 at Tue Mar  4 17:34:25 2025.

 ----------------------------------------------------------------------
 #N Geom=AllCheck Guess=TCheck SCRF=Check GenChk RM062X/Aug-CC-pVTZ Fre
 q
 ----------------------------------------------------------------------

 Structure from the checkpoint file:  "1.chk"
 -
 1
 -
 Charge =  0 Multiplicity = 1

                         Standard orientation:
 ---------------------------------------------------------------------
 Center     Atomic      Atomic             Coordinates (Angstroms)
 Number     Number       Type             X           Y           Z
 ---------------------------------------------------------------------
      1          6           0        0.214074    0.029993    0.000055
      2          6           0       -0.444155   -1.195664   -0.000015
      3          6           0       -1.830001   -1.229568   -0.000062
      4          6           0       -2.553870   -0.044976   -0.000035
      5          6           0       -1.895131    1.178409    0.000035
      6          6           0       -0.511250    1.217117    0.000072
      7          6           0        1.696683    0.122774    0.000108
      8          8           0        2.319444    1.150283   -0.000174
      9          8           0        2.302324   -1.080784    0.000069
     10          1           0        0.129659   -2.110752   -0.000027
     11          1           0       -2.345688   -2.179712   -0.000118
     12          1           0       -3.635079   -0.074695   -0.000070
     13          1           0       -2.461774    2.099033    0.000059
     14          1           0        0.026956    2.154678    0.000120
     15          1           0        3.253677   -0.913048   -0.000068
 ---------------------------------------------------------------------

 SCF Done:  E(RM062X) =  -420.818906317     A.U. after    1 cycles

 The electronic state is 1-A.
 Alpha  occ. eigenvalues --  -19.67823 -19.62149 -10.68395 -10.56626 -10.56044
 Alpha  occ. eigenvalues --  -10.56034 -10.55804 -10.55624 -10.55567  -1.24633
 Alpha  occ. eigenvalues --   -1.14907  -0.98298  -0.87897  -0.86150  -0.76029
 Alpha  occ. eigenvalues --   -0.70881  -0.67828  -0.62369  -0.58809  -0.56521
 Alpha  occ. eigenvalues --   -0.54696  -0.53437  -0.52331  -0.50520  -0.48479
 Alpha  occ. eigenvalues --   -0.45535  -0.43210  -0.41651  -0.40768  -0.36610
 Alpha  occ. eigenvalues --   -0.32666  -0.32424
 Alpha virt. eigenvalues --   -0.02739  -0.00772   0.00047   0.00670   0.00754
 Alpha virt. eigenvalues --    0.01882   0.02769   0.03223   0.03740   0.05315
 Alpha virt. eigenvalues --    0.05755   0.06039   0.06314   0.07224   0.07560

 Mulliken charges:
               1
     1  C    1.772847
     2  C   -0.562666
     3  C   -0.229609
     4  C   -0.213758
     5  C   -0.165622
     6  C   -1.003185
     7  C    0.333826
     8  O   -0.910813
     9  O   -0.517274
    10  H    0.334927
    11  H    0.154973
    12  H    0.224143
    13  H    0.173407
    14  H    0.304690
    15  H    0.304114
 Sum of Mulliken charges =   0.00000

 Dipole moment (field-independent basis, Debye):
    X=             -1.5009    Y=             -1.4343    Z=              0.0002  Tot=              2.0760
 Quadrupole moment (field-independent basis, Debye-Ang):
   XX=            -44.7239   YY=            -50.4459   ZZ=            -54.7290
   XY=             -5.4735   XZ=              0.0006   YZ=              0.0011

  Exact polarizability:     115.774       1.358      94.770       0.000       0.000      51.972
 Approx polarizability:     136.501       3.485     129.502       0.000       0.000      69.179

 Summary of Natural Population Analysis:

                                       Natural Population
                Natural  -----------------------------------------------
    Atom  No    Charge         Core      Valence    Rydberg      Total
 -----------------------------------------------------------------------
      C    1   -0.18103      1.99900     4.15524    0.02679     6.18103
      C    2   -0.16262      1.99921     4.14682    0.01660     6.16262
      C    3   -0.21080      1.99928     4.19406    0.01746     6.21080
      C    4   -0.17926      1.99929     4.16250    0.01747     6.17926
      C    5   -0.20957      1.99928     4.19301    0.01728     6.20957
      C    6   -0.15303      1.99921     4.13719    0.01663     6.15303
      C    7    0.80510      1.99939     3.16202    0.03350     5.19490
      O    8   -0.60285      1.99977     6.57121    0.03187     8.60285
      O    9   -0.70144      1.99978     6.67670    0.02496     8.70144
      H   10    0.22791      0.00000     0.76920    0.00289     0.77209
      H   11    0.21239      0.00000     0.78508    0.00253     0.78761
      H   12    0.21060      0.00000     0.78690    0.00250     0.78940
      H   13    0.21295      0.00000     0.78456    0.00249     0.78705
      H   14    0.23334      0.00000     0.76383    0.00283     0.76666
      H   15    0.49831      0.00000     0.49833    0.00336     0.50169
 =======================================================================
   * Total *    0.00000     17.99420    45.78665    0.21916    64.00000

                      1                      2                      3
                      A                      A                      A
 Frequencies --     65.0475               159.7633               220.6363
 Red. masses --      7.0033                 4.4828                 5.5424
 Frc consts  --      0.0175                 0.0674                 0.1590
 IR Inten    --      1.1694                 0.7578                 1.6292

                      4                      5                      6
                      A                      A                      A
 Frequencies --    387.8794               410.6872               434.2483
 Red. masses --      7.9365                 2.8247                 3.0267
 Frc consts  --      0.7035                 0.2807                 0.3363
 IR Inten    --      4.6732                 0.3071                10.2405

                      7                      8                      9
                      A                      A                      A
 Frequencies --    501.2026               588.1016               628.7217
 Red. masses --      7.1678                 1.2115                 6.3716
 Frc consts  --      1.0609                 0.2469                 1.4839
 IR Inten    --      5.5151                65.8407                 0.0789

                     10                     11                     12
                      A                      A                      A
 Frequencies --    646.1087               706.0368               737.9262
 Red. masses --      4.8525                 2.5499                 1.6728
 Frc consts  --      1.1935                 0.7489                 0.5367
 IR Inten    --     51.5490                 4.3406               133.2251

                     13                     14                     15
                      A                      A                      A
 Frequencies --    787.6773               839.8306               882.5950
 Red. masses --      4.5107                 3.1401                 1.2470
 Frc consts  --      1.6489                 1.3049                 0.5723
 IR Inten    --     14.2641                 0.0492                 0.0172

                     16                     17                     18
                      A                      A                      A
 Frequencies --    980.8502              1019.1962              1024.0872
 Red. masses --      1.4457                 1.3836                 6.1938
 Frc consts  --      0.8195                 0.8468                 3.8272
 IR Inten    --      1.0277                 0.0231                 1.0819

                     19                     20                     21
                      A                      A                      A
 Frequencies --   1034.6211              1059.1755              1106.5208
 Red. masses --      1.2983                 2.2807                 1.5824
 Frc consts  --      0.8188                 1.5075                 1.1416
 IR Inten    --      0.0112                 9.4697                34.9966

                     22                     23                     24
                      A                      A                      A
 Frequencies --   1139.0040              1177.1205              1194.9554
 Red. masses --      3.4290                 1.1573                 1.1858
 Frc consts  --      2.6210                 0.9448                 0.9977
 IR Inten    --     71.3249                 0.7732                79.3609

                     25                     26                     27
                      A                      A                      A
 Frequencies --   1221.3614              1332.1588              1347.8072
 Red. masses --      1.6193                 4.3080                 1.4426
 Frc consts  --      1.4232                 4.5044                 1.5440
 IR Inten    --    154.6928                 2.3838                 3.8322

                     28                     29                     30
                      A                      A                      A
 Frequencies --   1394.2535              1495.4426              1539.6181
 Red. masses --      2.9677                 2.3733                 2.4600
 Frc consts  --      3.3991                 3.1271                 3.4357
 IR Inten    --    163.0009                17.9961                 3.5882

                     31                     32                     33
                      A                      A                      A
 Frequencies --   1658.0608              1676.2075              1847.7615
 Red. masses --      6.2919                 5.9917                10.3876
 Frc consts  --     10.1914                 9.9187                20.8957
 IR Inten    --      3.8668                15.4536               390.8977

                     34                     35                     36
                      A                      A                      A
 Frequencies --   3202.3867              3214.8633              3222.2027
 Red. masses --      1.0865                 1.0897                 1.0936
 Frc consts  --      6.5647                 6.6355                 6.6897
 IR Inten    --      0.5852                 5.5999                 4.3492

                     37                     38                     39
                      A                      A                      A
 Frequencies --   3231.0418              3238.1649              3819.0810
 Red. masses --      1.0960                 1.0950                 1.0646
 Frc consts  --      6.7416                 6.7646                 9.1485
 IR Inten    --      4.8865                 2.3418               124.8673

 - Thermochemistry -
 -------------------
 Temperature   298.150 Kelvin.  Pressure   1.00000 Atm.
 Atom     1 has atomic number  6 and mass  12.00000

 Molecular mass:   122.03678 amu.
 Principal axes and moments of inertia in atomic units:
                           1         2         3
     Eigenvalues --   460.688441458.671271919.35970
           X            0.99995  -0.01039   0.00000
           Y            0.01039   0.99995   0.00001
           Z            0.00000  -0.00001   1.00000
 This molecule is an asymmetric top.
 Rotational symmetry number  1.
 Warning -- assumption of classical behavior for rotation
           may cause significant error
 Rotational temperatures (Kelvin)      0.18801     0.05938     0.04513
 Rotational constants (GHZ):           3.91749     1.23725     0.94028
 Zero-point vibrational energy     306079.0 (Joules/Mol)
                                   73.15463 (Kcal/Mol)
 Warning -- explicit consideration of   8 degrees of freedom as
           vibrations may cause significant error
 Vibrational temperatures:     93.59   229.86   317.45   558.07   590.89
          (Kelvin)            624.79   721.12   846.15   904.59   929.61
                             1015.83  1061.71  1133.29  1208.33  1269.86
                             1411.22  1466.40  1473.43  1488.59  1523.92
                             1592.04  1638.77  1693.61  1719.27  1757.27
                             1916.68  1939.19  2006.02  2151.61  2215.17
                             2385.58  2411.69  2658.52  4607.52  4625.47
                             4636.03  4648.75  4659.00  5494.81

 Zero-point correction=                           0.116579 (Hartree/Particle)
 Thermal correction to Energy=                    0.123663
 Thermal correction to Enthalpy=                  0.124607
 Thermal correction to Gibbs Free Energy=         0.084544
 Sum of electronic and zero-point Energies=           -420.702327
 Sum of electronic and thermal Energies=              -420.695243
 Sum of electronic and thermal Enthalpies=            -420.694299
 Sum of electronic and thermal Free Energies=         -420.734362

                     E (Thermal)             CV                S
                      KCal/Mol        Cal/Mol-Kelvin    Cal/Mol-Kelvin
 Total                   77.600             27.063             84.320
 Electronic               0.000              0.000              0.000
 Translational            0.889              2.981             40.312
 Rotational               0.889              2.981             28.646
 Vibrational             75.822             21.101             15.362
 Vibration     1          0.597              1.971              4.298
 Vibration     2          0.622              1.892              2.553
 Vibration     3          0.647              1.810              1.954
 Vibration     4          0.756              1.496              1.008
 Vibration     5          0.775              1.447              0.924
 Vibration     6          0.795              1.396              0.845
 Vibration     7          0.857              1.247              0.655
 Vibration     8          0.945              1.057              0.471

 Optimization completed.
    -- Stationary point found.
 Normal termination of Gaussian 16 at Tue Mar  4 18:03:42 2025.
