 Gaussian 16, Revision C.01,
 Gaussian 16:  ES64L-G16RevC.01  3-Jul-2019

 ------------------------------------
 # opt freq m062x/aug-cc-pvtz pop=nbo
 ------------------------------------

 --
 10
 --
 Symbolic Z-matrix:
 Charge =  0 Multiplicity = 1

 SCF Done:  E(RM062X) =  -516.632191213     A.U. after   14 cycles
 SCF Done:  E(RM062X) =  -516.674198182     A.U. after   12 cycles
 SCF Done:  E(RM062X) =  -516.683005200     A.U. after   12 cycles
 SCF Done:  E(RM062X) =  -516.683621463     A.U. after   10 cycles
 SCF Done:  E(RM062X) =  -516.683688355     A.U. after   10 cycles
 SCF Done:  E(RM062X) =  -516.683694528     A.U. after    9 cycles
 SCF Done:  E(RM062X) =  -516.683695014     A.U. after    8 cycles
 SCF Done:  E(RM062X) =  -516.683695335     A.U. after    7 cycles
 Optimization completed.
    -- Stationary point found.

 1\1\GINC-AE22\FOpt\RM062X\Aug-CC-pVTZ\C8H11N1O2\DHUANG\04-Mar-2025\0\\
 # opt freq m062x/aug-cc-pvtz pop=nbo\\10\\0,1\C,-2.9884076357,-0.90878
 20324,3.0048568294\C,-1.7441336496,-1.5319198313,2.4667686477\N,-0.749
 5516446,-1.9965691536,3.2777757524\C,-0.7675205331,-1.9486236631,4.725
 7180277\C,0.2827276717,-2.5219177523,2.5157914534\C,1.5114896236,-3.10
 64972937,3.1221220511\C,-0.064989609,-2.3871774083,1.2060209196\C,-1.3
 419595879,-1.7638237571,1.1643055213\C,-2.0534431556,-1.4493662937,-0.
 0638143711\O,-1.6551798763,-1.6736947931,-1.1790614789\O,-3.2570598885

 Normal termination of Gaussian 16 at Tue Mar  4 18:42:33 2025.

 ----------------------------------------------------------------------
 #N Geom=AllCheck Guess=TCheck SCRF=Check GenChk RM062X/Aug-CC-pVTZ Fre
 q
 ----------------------------------------------------------------------

 Structure from the checkpoint file:  "10.chk"
 --
 10
 --
 Charge =  0 Multiplicity = 1

                         Standard orientation:
 ---------------------------------------------------------------------
 Center     Atomic      Atomic             Coordinates (Angstroms)
 Number     Number       Type             X           Y           Z
 ---------------------------------------------------------------------
      1          6           0        0.395993    2.255205    0.000348
      2          6           0       -0.040932    0.828616    0.000186
      3          7           0       -1.357056    0.467172   -0.000048
      4          6           0       -2.472661    1.391609   -0.000038
      5          6           0       -1.473663   -0.914354   -0.000045
      6          6           0       -2.791429   -1.609135   -0.000179
      7          6           0       -0.214069   -1.432025    0.000073
      8          6           0        0.697003   -0.340736    0.000150
      9          6           0        2.143169   -0.488973   -0.000055
     10          8           0        2.738103   -1.537193    0.000449
     11          8           0        2.808467    0.695030   -0.000677
     12          1           0        1.012449    2.468124    0.872154
     13          1           0        1.004516    2.471085   -0.876388
     14          1           0       -0.454467    2.932663    0.005324
     15          1           0       -3.398707    0.826102   -0.002869
     16          1           0       -2.455373    2.021953    0.888126
     17          1           0       -2.452204    2.025489   -0.885574
     18          1           0       -2.619327   -2.682670    0.000210
     19          1           0       -3.386381   -1.366275    0.882295
     20          1           0       -3.385898   -1.366864   -0.883147
     21          1           0        0.053699   -2.474751    0.000047
     22          1           0        3.748044    0.471002   -0.000666
 ---------------------------------------------------------------------

 SCF Done:  E(RM062X) =  -516.683695335     A.U. after    1 cycles

 The electronic state is 1-A.
 Alpha  occ. eigenvalues --  -19.65800 -19.59669 -14.80610 -10.66209 -10.59008
 Alpha  occ. eigenvalues --  -10.58101 -10.56844 -10.54592 -10.54228 -10.52868
 Alpha  occ. eigenvalues --  -10.52096  -1.22257  -1.12414  -1.11129  -0.91896
 Alpha  occ. eigenvalues --   -0.89048  -0.82871  -0.81105  -0.75735  -0.71221
 Alpha  occ. eigenvalues --   -0.64807  -0.63412  -0.57440  -0.56228  -0.55823
 Alpha  occ. eigenvalues --   -0.54723  -0.52399  -0.51217  -0.49635  -0.49478
 Alpha  occ. eigenvalues --   -0.48629  -0.47059  -0.46492  -0.45378  -0.43829
 Alpha  occ. eigenvalues --   -0.43414  -0.42361  -0.38706  -0.34657  -0.30195
 Alpha  occ. eigenvalues --   -0.26252
 Alpha virt. eigenvalues --   -0.01414  -0.00126   0.00437   0.00668   0.01626
 Alpha virt. eigenvalues --    0.02056   0.02402   0.02488   0.02598   0.03330
 Alpha virt. eigenvalues --    0.03990   0.04668   0.05623   0.06246   0.06751

 Mulliken charges:
               1
     1  C   -1.081677
     2  C    0.102148
     3  N    0.076912
     4  C   -1.212336
     5  C    0.512352
     6  C   -0.720516
     7  C   -0.577229
     8  C    1.085834
     9  C    0.382727
    10  O   -0.956152
    11  O   -0.472768
    12  H    0.266181
    13  H    0.267642
    14  H    0.181617
    15  H    0.413198
    16  H    0.282063
    17  H    0.281134
    18  H    0.161925
    19  H    0.223117
    20  H    0.223425
    21  H    0.292162
    22  H    0.268240
 Sum of Mulliken charges =   0.00000

 Dipole moment (field-independent basis, Debye):
    X=             -3.8538    Y=              3.2297    Z=             -0.0011  Tot=              5.0282
 Quadrupole moment (field-independent basis, Debye-Ang):
   XX=            -58.3880   YY=            -65.1941   ZZ=            -67.1347
   XY=              5.6469   XZ=             -0.0017   YZ=              0.0026

  Exact polarizability:     141.792      -1.870     121.206      -0.003      -0.006      71.449
 Approx polarizability:     157.080      -7.184     148.569       0.000      -0.009      96.758

 Summary of Natural Population Analysis:

                                       Natural Population
                Natural  -----------------------------------------------
    Atom  No    Charge         Core      Valence    Rydberg      Total
 -----------------------------------------------------------------------
      C    1   -0.62916      1.99944     4.61838    0.01134     6.62916
      C    2    0.22483      1.99912     3.75159    0.02446     5.77517
      N    3   -0.37219      1.99931     5.35027    0.02262     7.37219
      C    4   -0.37531      1.99942     4.36274    0.01315     6.37531
      C    5    0.14141      1.99916     3.83540    0.02402     5.85859
      C    6   -0.62455      1.99944     4.61410    0.01101     6.62455
      C    7   -0.24213      1.99906     4.22781    0.01526     6.24213
      C    8   -0.26253      1.99889     4.23700    0.02664     6.26253
      C    9    0.80499      1.99932     3.16286    0.03283     5.19501
      O   10   -0.62195      1.99977     6.59088    0.03129     8.62195
      O   11   -0.71559      1.99979     6.69146    0.02434     8.71559
      H   12    0.23413      0.00000     0.76325    0.00262     0.76587
      H   13    0.23388      0.00000     0.76350    0.00262     0.76612
      H   14    0.20633      0.00000     0.79164    0.00203     0.79367
      H   15    0.21364      0.00000     0.78440    0.00196     0.78636
      H   16    0.20403      0.00000     0.79404    0.00192     0.79597
      H   17    0.20410      0.00000     0.79398    0.00192     0.79590
      H   18    0.23002      0.00000     0.76790    0.00208     0.76998
      H   19    0.21049      0.00000     0.78711    0.00241     0.78951
      H   20    0.21048      0.00000     0.78712    0.00241     0.78952
      H   21    0.23164      0.00000     0.76506    0.00330     0.76836
      H   22    0.49344      0.00000     0.50312    0.00344     0.50656
 =======================================================================
   * Total *    0.00000     21.99271    59.74360    0.26368    82.00000

 ******    1 imaginary frequencies (negative Signs) ******

                      1                      2                      3
                      A                      A                      A
 Frequencies --    -65.4019                79.6421               114.8898
 Red. masses --      1.0929                 5.7362                 3.2659
 Frc consts  --      0.0028                 0.0214                 0.0254
 IR Inten    --      0.4855                 0.4894                 1.6617

                      4                      5                      6
                      A                      A                      A
 Frequencies --    128.6580               150.1595               169.6997
 Red. masses --      1.1341                 2.5346                 5.2612
 Frc consts  --      0.0111                 0.0337                 0.0893
 IR Inten    --      0.4951                 1.6369                 1.0778

                      7                      8                      9
                      A                      A                      A
 Frequencies --    228.3894               261.3449               295.0452
 Red. masses --      1.0598                 3.3569                 2.7200
 Frc consts  --      0.0326                 0.1351                 0.1395
 IR Inten    --      0.1365                 2.7424                 2.3400

                     10                     11                     12
                      A                      A                      A
 Frequencies --    312.7773               341.2831               388.4221
 Red. masses --      3.6252                 2.7300                 5.4215
 Frc consts  --      0.2090                 0.1873                 0.4819
 IR Inten    --      0.0245                 1.6467                 2.7763

                     13                     14                     15
                      A                      A                      A
 Frequencies --    405.6977               563.7863               583.7982
 Red. masses --      5.2093                 1.2244                 4.1754
 Frc consts  --      0.5052                 0.2293                 0.8384
 IR Inten    --      3.4328                79.8507                 0.9204

                     16                     17                     18
                      A                      A                      A
 Frequencies --    588.4825               646.9030               676.3083
 Red. masses --      3.4352                 3.2926                 4.0157
 Frc consts  --      0.7009                 0.8118                 1.0822
 IR Inten    --      4.7933                 1.0595                 9.9520

                     19                     20                     21
                      A                      A                      A
 Frequencies --    680.3377               749.6545               806.1916
 Red. masses --      3.9340                 4.1737                 3.6416
 Frc consts  --      1.0728                 1.3820                 1.3945
 IR Inten    --     50.7839                 1.4827                52.7626

                     22                     23                     24
                      A                      A                      A
 Frequencies --    820.2847               858.3065               995.6373
 Red. masses --      2.8651                 1.6533                 1.7639
 Frc consts  --      1.1358                 0.7176                 1.0302
 IR Inten    --      5.3902                 4.9940                 4.5707

                     25                     26                     27
                      A                      A                      A
 Frequencies --   1014.6407              1054.9894              1068.9633
 Red. masses --      1.4054                 1.4710                 1.4804
 Frc consts  --      0.8524                 0.9646                 0.9967
 IR Inten    --     15.6748                 0.4562                 1.0187

                     28                     29                     30
                      A                      A                      A
 Frequencies --   1085.1630              1147.5140              1148.0622
 Red. masses --      2.4683                 1.3166                 2.0468
 Frc consts  --      1.7125                 1.0214                 1.5895
 IR Inten    --     55.4378                 0.4033                75.5941

                     31                     32                     33
                      A                      A                      A
 Frequencies --   1170.9658              1207.8523              1231.9474
 Red. masses --      2.0120                 1.7402                 4.2445
 Frc consts  --      1.6254                 1.4958                 3.7954
 IR Inten    --     68.8527               181.3736                 6.1512

                     34                     35                     36
                      A                      A                      A
 Frequencies --   1329.7828              1412.0528              1416.0427
 Red. masses --      2.2792                 1.7017                 2.2334
 Frc consts  --      2.3746                 1.9991                 2.6385
 IR Inten    --     17.3779                 6.5579                 6.7531

                     37                     38                     39
                      A                      A                      A
 Frequencies --   1420.1901              1441.1597              1468.3686
 Red. masses --      1.3385                 2.4750                 1.4841
 Frc consts  --      1.5906                 3.0286                 1.8854
 IR Inten    --      3.4699                53.8177                22.9247

                     40                     41                     42
                      A                      A                      A
 Frequencies --   1477.5089              1487.0728              1488.8848
 Red. masses --      1.0401                 1.0427                 1.6039
 Frc consts  --      1.3378                 1.3585                 2.0949
 IR Inten    --     16.4461                 4.8968                73.4764

                     43                     44                     45
                      A                      A                      A
 Frequencies --   1503.1580              1508.9654              1522.2160
 Red. masses --      1.1545                 1.0398                 1.1350
 Frc consts  --      1.5369                 1.3949                 1.5495
 IR Inten    --      8.1038                 0.1309                15.7502

                     46                     47                     48
                      A                      A                      A
 Frequencies --   1535.7860              1587.0924              1647.8506
 Red. masses --      2.4074                 7.3579                 7.0578
 Frc consts  --      3.3455                10.9196                11.2916
 IR Inten    --     83.8779                56.7800                 4.0373

                     49                     50                     51
                      A                      A                      A
 Frequencies --   1830.5994              3052.9636              3074.4922
 Red. masses --      9.7470                 1.0392                 1.0370
 Frc consts  --     19.2445                 5.7069                 5.7755
 IR Inten    --    610.6312                31.4322                30.4137

                     52                     53                     54
                      A                      A                      A
 Frequencies --   3081.3359              3103.7471              3133.6764
 Red. masses --      1.0363                 1.1016                 1.1054
 Frc consts  --      5.7973                 6.2526                 6.3957
 IR Inten    --     18.5458                11.8585                10.6255

                     55                     56                     57
                      A                      A                      A
 Frequencies --   3138.3382              3156.1658              3162.9802
 Red. masses --      1.1009                 1.0977                 1.1013
 Frc consts  --      6.3885                 6.4423                 6.4916
 IR Inten    --      2.5146                 6.0821                12.0426

                     58                     59                     60
                      A                      A                      A
 Frequencies --   3185.6411              3280.7937              3819.4652
 Red. masses --      1.0988                 1.0977                 1.0644
 Frc consts  --      6.5699                 6.9612                 9.1488
 IR Inten    --      3.6459                 2.6572               110.4130

 - Thermochemistry -
 -------------------
 Temperature   298.150 Kelvin.  Pressure   1.00000 Atm.
 Atom     1 has atomic number  6 and mass  12.00000

 Molecular mass:   153.07898 amu.
 Principal axes and moments of inertia in atomic units:
                           1         2         3
     Eigenvalues --   938.084262151.026113055.56643
           X            0.99970   0.02451   0.00000
           Y           -0.02451   0.99970   0.00001
           Z            0.00000  -0.00001   1.00000
 This molecule is an asymmetric top.
 Rotational symmetry number  1.
 Warning -- assumption of classical behavior for rotation
           may cause significant error
 Rotational temperatures (Kelvin)      0.09233     0.04027     0.02835
 Rotational constants (GHZ):           1.92386     0.83901     0.59064
    1 imaginary frequencies ignored.
 Zero-point vibrational energy     479954.5 (Joules/Mol)
                                  114.71188 (Kcal/Mol)
 Warning -- explicit consideration of  15 degrees of freedom as
           vibrations may cause significant error
 Vibrational temperatures:    114.59   165.30   185.11   216.05   244.16
          (Kelvin)            328.60   376.02   424.50   450.02   491.03
                              558.85   583.71   811.16   839.96   846.69
                              930.75   973.06   978.85  1078.59  1159.93
                             1180.21  1234.91  1432.50  1459.84  1517.89
                             1538.00  1561.31  1651.02  1651.81  1684.76
                             1737.83  1772.50  1913.26  2031.63  2037.37
                             2043.34  2073.51  2112.65  2125.81  2139.57
                             2142.17  2162.71  2171.06  2190.13  2209.65
                             2283.47  2370.89  2633.82  4392.53  4423.51
                             4433.36  4465.60  4508.66  4515.37  4541.02
                             4550.82  4583.43  4720.33  5495.36

 Zero-point correction=                           0.182805 (Hartree/Particle)
 Thermal correction to Energy=                    0.193402
 Thermal correction to Enthalpy=                  0.194346
 Thermal correction to Gibbs Free Energy=         0.146843
 Sum of electronic and zero-point Energies=           -516.500890
 Sum of electronic and thermal Energies=              -516.490294
 Sum of electronic and thermal Enthalpies=            -516.489350
 Sum of electronic and thermal Free Energies=         -516.536852

                     E (Thermal)             CV                S
                      KCal/Mol        Cal/Mol-Kelvin    Cal/Mol-Kelvin
 Total                  121.361             39.462             99.978
 Electronic               0.000              0.000              0.000
 Translational            0.889              2.981             40.987
 Rotational               0.889              2.981             30.201
 Vibrational            119.584             33.500             28.790
 Vibration     1          0.600              1.963              3.900
 Vibration     2          0.608              1.937              3.185
 Vibration     3          0.611              1.925              2.966
 Vibration     4          0.618              1.902              2.670
 Vibration     5          0.625              1.880              2.439
 Vibration     6          0.651              1.798              1.892
 Vibration     7          0.669              1.744              1.653
 Vibration     8          0.689              1.683              1.445
 Vibration     9          0.701              1.649              1.348
 Vibration    10          0.721              1.593              1.206
 Vibration    11          0.757              1.495              1.006
 Vibration    12          0.771              1.458              0.942
 Vibration    13          0.920              1.110              0.516
 Vibration    14          0.941              1.066              0.478
 Vibration    15          0.946              1.056              0.470

                           ! Non-Optimized Parameters !

 1\1\GINC-AE22\Freq\RM062X\Aug-CC-pVTZ\C8H11N1O2\DHUANG\04-Mar-2025\0\\
 #N Geom=AllCheck Guess=TCheck SCRF=Check GenChk RM062X/Aug-CC-pVTZ Fre
 q\\10\\0,1\C,-2.9884076357,-0.9087820324,3.0048568294\C,-1.7441336496,
 -1.5319198313,2.4667686477\N,-0.7495516446,-1.9965691536,3.2777757524\
 C,-0.7675205331,-1.9486236631,4.7257180277\C,0.2827276717,-2.521917752
 3,2.5157914534\C,1.5114896236,-3.1064972937,3.1221220511\C,-0.06498960
 9,-2.3871774083,1.2060209196\C,-1.3419595879,-1.7638237571,1.164305521
 3\C,-2.0534431556,-1.4493662937,-0.0638143711\O,-1.6551798763,-1.67369

 Normal termination of Gaussian 16 at Tue Mar  4 19:53:20 2025.
