 Gaussian 16, Revision C.01,
 Gaussian 16:  ES64L-G16RevC.01  3-Jul-2019

 ------------------------------------
 # opt freq m062x/aug-cc-pvtz pop=nbo
 ------------------------------------

 --
 11
 --
 Symbolic Z-matrix:
 Charge =  0 Multiplicity = 1

 SCF Done:  E(RM062X) =  -555.942083275     A.U. after   14 cycles
 SCF Done:  E(RM062X) =  -555.984263356     A.U. after   12 cycles
 SCF Done:  E(RM062X) =  -555.993569900     A.U. after   12 cycles
 SCF Done:  E(RM062X) =  -555.994282792     A.U. after   11 cycles
 SCF Done:  E(RM062X) =  -555.994398139     A.U. after   11 cycles
 SCF Done:  E(RM062X) =  -555.994578227     A.U. after   10 cycles
 SCF Done:  E(RM062X) =  -555.994638881     A.U. after    9 cycles
 SCF Done:  E(RM062X) =  -555.994684226     A.U. after   11 cycles
 SCF Done:  E(RM062X) =  -555.994692294     A.U. after    9 cycles
 SCF Done:  E(RM062X) =  -555.994705480     A.U. after    9 cycles
 SCF Done:  E(RM062X) =  -555.995219325     A.U. after    9 cycles
 SCF Done:  E(RM062X) =  -555.995219731     A.U. after    7 cycles
 SCF Done:  E(RM062X) =  -555.995219829     A.U. after    7 cycles
 SCF Done:  E(RM062X) =  -555.995219863     A.U. after    7 cycles
 SCF Done:  E(RM062X) =  -555.995219885     A.U. after    7 cycles
 SCF Done:  E(RM062X) =  -555.995219891     A.U. after    6 cycles
 SCF Done:  E(RM062X) =  -555.995219896     A.U. after    5 cycles
 SCF Done:  E(RM062X) =  -555.995219900     A.U. after    5 cycles
 SCF Done:  E(RM062X) =  -555.995219904     A.U. after    5 cycles
 Optimization completed.
    -- Stationary point found.

 1\1\GINC-AE21\FOpt\RM062X\Aug-CC-pVTZ\C9H13N1O2\DHUANG\05-Mar-2025\0\\
 # opt freq m062x/aug-cc-pvtz pop=nbo\\11\\0,1\C,-3.1041649771,-0.79518
 7952,2.9599634672\C,-1.8991739412,-1.4622254592,2.3899598836\N,-1.0206
 703853,-2.10388193,3.2048940878\C,-1.1298522237,-2.1624106172,4.646349
 2171\C,0.0296228337,-2.6288837387,2.4664769071\C,1.1377873432,-3.37368
 84418,3.1269957652\C,-0.1867814716,-2.3279605523,1.1517895468\C,0.6751
 824735,-2.7000172179,-0.0106463006\C,-1.4143265272,-1.586470539,1.0972
 99482\C,-1.9939935186,-1.0901253188,-0.1411813924\O,-1.5053648063,-1.2

 Normal termination of Gaussian 16 at Wed Mar  5 07:02:55 2025.

 ----------------------------------------------------------------------
 #N Geom=AllCheck Guess=TCheck SCRF=Check GenChk RM062X/Aug-CC-pVTZ Fre
 q
 ----------------------------------------------------------------------

 Structure from the checkpoint file:  "11.chk"
 --
 11
 --
 Charge =  0 Multiplicity = 1

                         Standard orientation:
 ---------------------------------------------------------------------
 Center     Atomic      Atomic             Coordinates (Angstroms)
 Number     Number       Type             X           Y           Z
 ---------------------------------------------------------------------
      1          6           0        0.161364   -2.560897   -0.010369
      2          6           0       -0.126711   -1.098485    0.004186
      3          7           0       -1.410686   -0.652670    0.020471
      4          6           0       -2.577357   -1.507161   -0.022698
      5          6           0       -1.441650    0.734028    0.009920
      6          6           0       -2.734059    1.474780    0.013218
      7          6           0       -0.152340    1.184970   -0.001130
      8          6           0        0.303789    2.607857   -0.002581
      9          6           0        0.688960    0.022278   -0.003322
     10          6           0        2.142227    0.087255   -0.004047
     11          8           0        2.793839    1.103386   -0.032508
     12          8           0        2.762900   -1.120504    0.034575
     13          1           0        1.220281   -2.735926   -0.150261
     14          1           0       -0.141366   -3.029597    0.928981
     15          1           0       -0.385221   -3.055487   -0.815451
     16          1           0       -3.431272   -0.974593    0.385485
     17          1           0       -2.809219   -1.810949   -1.045227
     18          1           0       -2.408271   -2.397859    0.577384
     19          1           0       -2.545274    2.542363   -0.055547
     20          1           0       -3.365678    1.195160   -0.832356
     21          1           0       -3.305570    1.299459    0.927446
     22          1           0        0.929840    2.818354    0.863562
     23          1           0        0.912555    2.822835   -0.879715
     24          1           0       -0.544224    3.290040    0.008824
     25          1           0        3.708975   -0.925918    0.027991
 ---------------------------------------------------------------------

 SCF Done:  E(RM062X) =  -555.995219904     A.U. after    1 cycles

 The electronic state is 1-A.
 Alpha  occ. eigenvalues --  -19.65690 -19.59670 -14.80077 -10.66289 -10.58758
 Alpha  occ. eigenvalues --  -10.57942 -10.56159 -10.54306 -10.54018 -10.52910
 Alpha  occ. eigenvalues --  -10.52807 -10.51578  -1.22296  -1.12341  -1.10904
 Alpha  occ. eigenvalues --   -0.92136  -0.89114  -0.82657  -0.82334  -0.79482
 Alpha  occ. eigenvalues --   -0.72842  -0.70852  -0.63980  -0.61944  -0.57061
 Alpha  occ. eigenvalues --   -0.56250  -0.55992  -0.54169  -0.52368  -0.50596
 Alpha  occ. eigenvalues --   -0.50251  -0.49377  -0.48642  -0.47555  -0.46297
 Alpha  occ. eigenvalues --   -0.45286  -0.45060  -0.44540  -0.42713  -0.42377
 Alpha  occ. eigenvalues --   -0.40453  -0.38693  -0.34407  -0.29192  -0.25658
 Alpha virt. eigenvalues --   -0.01402  -0.00055   0.00396   0.00711   0.01534
 Alpha virt. eigenvalues --    0.02105   0.02153   0.02526   0.02716   0.03060
 Alpha virt. eigenvalues --    0.03838   0.04440   0.04904   0.05508   0.05839

 Mulliken charges:
               1
     1  C   -0.997497
     2  C   -0.071216
     3  N   -0.213750
     4  C   -1.412340
     5  C    0.673163
     6  C   -0.996344
     7  C    0.707606
     8  C   -1.199611
     9  C    1.752157
    10  C    0.069022
    11  O   -0.960150
    12  O   -0.514221
    13  H    0.273577
    14  H    0.231018
    15  H    0.173204
    16  H    0.363604
    17  H    0.353396
    18  H    0.308279
    19  H    0.332501
    20  H    0.111606
    21  H    0.163358
    22  H    0.159293
    23  H    0.168040
    24  H    0.258413
    25  H    0.266893
 Sum of Mulliken charges =   0.00000

 Dipole moment (field-independent basis, Debye):
    X=             -3.7453    Y=             -2.6601    Z=              0.0237  Tot=              4.5940
 Quadrupole moment (field-independent basis, Debye-Ang):
   XX=            -65.8783   YY=            -69.5875   ZZ=            -73.5028
   XY=             -3.9062   XZ=              0.1203   YZ=              0.1294

  Exact polarizability:     152.392       4.824     139.164       0.275      -0.009      79.684
 Approx polarizability:     174.079       9.729     163.699      -0.007      -0.356     109.698

 Summary of Natural Population Analysis:

                                       Natural Population
                Natural  -----------------------------------------------
    Atom  No    Charge         Core      Valence    Rydberg      Total
 -----------------------------------------------------------------------
      C    1   -0.63807      1.99943     4.62757    0.01106     6.63807
      C    2    0.23397      1.99913     3.74292    0.02397     5.76603
      N    3   -0.36970      1.99930     5.34800    0.02240     7.36970
      C    4   -0.37490      1.99943     4.36250    0.01297     6.37490
      C    5    0.13499      1.99902     3.84346    0.02253     5.86501
      C    6   -0.62393      1.99944     4.61384    0.01065     6.62393
      C    7   -0.04464      1.99899     4.02268    0.02297     6.04464
      C    8   -0.60072      1.99944     4.59007    0.01121     6.60072
      C    9   -0.26340      1.99881     4.23910    0.02549     6.26340
      C   10    0.80782      1.99932     3.16049    0.03238     5.19218
      O   11   -0.62865      1.99978     6.59755    0.03132     8.62865
      O   12   -0.71875      1.99979     6.69483    0.02413     8.71875
      H   13    0.25359      0.00000     0.74387    0.00254     0.74641
      H   14    0.21442      0.00000     0.78311    0.00246     0.78558
      H   15    0.21155      0.00000     0.78615    0.00230     0.78845
      H   16    0.21125      0.00000     0.78684    0.00191     0.78875
      H   17    0.20040      0.00000     0.79752    0.00207     0.79960
      H   18    0.20853      0.00000     0.78951    0.00196     0.79147
      H   19    0.22745      0.00000     0.77071    0.00184     0.77255
      H   20    0.21058      0.00000     0.78710    0.00232     0.78942
      H   21    0.20978      0.00000     0.78783    0.00239     0.79022
      H   22    0.22433      0.00000     0.77329    0.00238     0.77567
      H   23    0.22455      0.00000     0.77305    0.00240     0.77545
      H   24    0.19568      0.00000     0.80230    0.00202     0.80432
      H   25    0.49386      0.00000     0.50270    0.00344     0.50614
 =======================================================================
   * Total *    0.00000     23.99187    65.72701    0.28112    90.00000

 ******    1 imaginary frequencies (negative Signs) ******

                      1                      2                      3
                      A                      A                      A
 Frequencies --    -17.0788                50.5835                95.1469
 Red. masses --      1.0644                 7.0423                 3.0782
 Frc consts  --      0.0002                 0.0106                 0.0164
 IR Inten    --      0.0238                 0.8491                 0.3291

                      4                      5                      6
                      A                      A                      A
 Frequencies --    124.5520               154.2195               162.4957
 Red. masses --      2.0386                 1.2993                 1.0733
 Frc consts  --      0.0186                 0.0182                 0.0167
 IR Inten    --      0.2406                 0.3320                 0.1308

                      7                      8                      9
                      A                      A                      A
 Frequencies --    177.1684               197.4538               205.5307
 Red. masses --      2.1164                 1.2584                 3.2948
 Frc consts  --      0.0391                 0.0289                 0.0820
 IR Inten    --      6.4009                 1.3133                 1.6441

                     10                     11                     12
                      A                      A                      A
 Frequencies --    288.7700               304.4772               315.5838
 Red. masses --      4.6256                 2.8261                 2.6250
 Frc consts  --      0.2273                 0.1544                 0.1540
 IR Inten    --      0.3724                 3.4934                 1.1963

                     13                     14                     15
                      A                      A                      A
 Frequencies --    332.0401               346.8772               387.8968
 Red. masses --      3.6807                 2.4764                 5.0039
 Frc consts  --      0.2391                 0.1756                 0.4436
 IR Inten    --      0.4507                 2.0043                 2.0917

                     16                     17                     18
                      A                      A                      A
 Frequencies --    412.4817               562.1993               578.4824
 Red. masses --      6.5856                 1.2031                 4.3833
 Frc consts  --      0.6602                 0.2240                 0.8642
 IR Inten    --      2.2863                74.4093                 2.6883

                     19                     20                     21
                      A                      A                      A
 Frequencies --    594.8227               621.7345               665.2239
 Red. masses --      4.1670                 2.8954                 4.2938
 Frc consts  --      0.8687                 0.6594                 1.1195
 IR Inten    --      4.3082                 2.8937                 0.2833

                     22                     23                     24
                      A                      A                      A
 Frequencies --    680.7180               689.1117               818.4232
 Red. masses --      4.1631                 3.8972                 8.5345
 Frc consts  --      1.1366                 1.0904                 3.3681
 IR Inten    --     18.7234                45.7487                24.7197

                     25                     26                     27
                      A                      A                      A
 Frequencies --    823.4942               883.8585              1010.8912
 Red. masses --      2.7074                 2.5482                 1.5122
 Frc consts  --      1.0817                 1.1729                 0.9105
 IR Inten    --     14.0269                 2.6230                 3.8466

                     28                     29                     30
                      A                      A                      A
 Frequencies --   1050.2520              1053.7190              1064.3282
 Red. masses --      1.4120                 1.7984                 1.5116
 Frc consts  --      0.9176                 1.1765                 1.0089
 IR Inten    --      3.6277                44.0406                 2.9767

                     31                     32                     33
                      A                      A                      A
 Frequencies --   1070.0172              1073.1002              1137.6662
 Red. masses --      2.0979                 1.5615                 2.2335
 Frc consts  --      1.4152                 1.0595                 1.7032
 IR Inten    --     26.2618                 1.1430                71.5992

                     34                     35                     36
                      A                      A                      A
 Frequencies --   1146.5167              1166.2354              1229.4754
 Red. masses --      1.3580                 2.2479                 4.0548
 Frc consts  --      1.0518                 1.8014                 3.6113
 IR Inten    --      3.8595               163.2197                 1.1936

                     37                     38                     39
                      A                      A                      A
 Frequencies --   1244.2342              1345.6324              1407.8111
 Red. masses --      2.0387                 2.8308                 1.4374
 Frc consts  --      1.8596                 3.0200                 1.6785
 IR Inten    --     88.2218                14.2441                 1.1742

                     40                     41                     42
                      A                      A                      A
 Frequencies --   1413.0858              1428.2280              1438.2135
 Red. masses --      1.2942                 1.3787                 2.9804
 Frc consts  --      1.5226                 1.6570                 3.6323
 IR Inten    --      5.5754                10.1259                54.7354

                     43                     44                     45
                      A                      A                      A
 Frequencies --   1453.6122              1469.0587              1476.4445
 Red. masses --      1.7217                 1.4311                 1.5696
 Frc consts  --      2.1435                 1.8197                 2.0159
 IR Inten    --     70.0064                22.5218                64.7385

                     46                     47                     48
                      A                      A                      A
 Frequencies --   1478.1947              1486.2116              1491.0184
 Red. masses --      1.1079                 1.0516                 1.1283
 Frc consts  --      1.4264                 1.3685                 1.4779
 IR Inten    --      9.8167                 7.5701                12.5691

                     49                     50                     51
                      A                      A                      A
 Frequencies --   1496.7471              1500.3432              1506.1237
 Red. masses --      1.1523                 1.1527                 1.0949
 Frc consts  --      1.5210                 1.5288                 1.4634
 IR Inten    --      8.6800                12.8644                 4.4016

                     52                     53                     54
                      A                      A                      A
 Frequencies --   1518.6176              1529.3858              1595.4526
 Red. masses --      1.4677                 1.6893                 5.9607
 Frc consts  --      1.9943                 2.3281                 8.9395
 IR Inten    --      6.9830                76.9175                75.0806

                     55                     56                     57
                      A                      A                      A
 Frequencies --   1668.9893              1816.6570              3049.8852
 Red. masses --      7.4379                 9.3741                 1.0415
 Frc consts  --     12.2069                18.2274                 5.7077
 IR Inten    --      4.6897               540.1194                31.9906

                     58                     59                     60
                      A                      A                      A
 Frequencies --   3053.6787              3062.9329              3074.1231
 Red. masses --      1.0441                 1.0448                 1.0356
 Frc consts  --      5.7363                 5.7752                 5.7660
 IR Inten    --     28.8252                40.6451                22.0418

                     61                     62                     63
                      A                      A                      A
 Frequencies --   3097.2016              3101.5872              3131.4849
 Red. masses --      1.1011                 1.0997                 1.1006
 Frc consts  --      6.2232                 6.2327                 6.3587
 IR Inten    --     10.6765                14.2865                 7.4338

                     64                     65                     66
                      A                      A                      A
 Frequencies --   3139.8498              3147.7778              3168.2231
 Red. masses --      1.0922                 1.1024                 1.0946
 Frc consts  --      6.3442                 6.4355                 6.4732
 IR Inten    --      9.2538                16.3232                10.4695

                     67                     68                     69
                      A                      A                      A
 Frequencies --   3176.3740              3213.4759              3818.0005
 Red. masses --      1.1028                 1.0934                 1.0644
 Frc consts  --      6.5553                 6.6524                 9.1416
 IR Inten    --      4.0987                 1.0487               112.3416

 - Thermochemistry -
 -------------------
 Temperature   298.150 Kelvin.  Pressure   1.00000 Atm.
 Atom     1 has atomic number  6 and mass  12.00000

 Molecular mass:   167.09463 amu.
 Principal axes and moments of inertia in atomic units:
                           1         2         3
     Eigenvalues --  1346.582302176.384603477.94913
           X            0.99995  -0.00973   0.00034
           Y            0.00973   0.99995   0.00066
           Z           -0.00034  -0.00066   1.00000
 This molecule is an asymmetric top.
 Rotational symmetry number  1.
 Warning -- assumption of classical behavior for rotation
           may cause significant error
 Rotational temperatures (Kelvin)      0.06432     0.03980     0.02490
 Rotational constants (GHZ):           1.34024     0.82924     0.51891
    1 imaginary frequencies ignored.
 Zero-point vibrational energy     553118.6 (Joules/Mol)
                                  132.19851 (Kcal/Mol)
 Warning -- explicit consideration of  18 degrees of freedom as
           vibrations may cause significant error
 Vibrational temperatures:     72.78   136.90   179.20   221.89   233.80
          (Kelvin)            254.91   284.09   295.71   415.48   438.07
                              454.05   477.73   499.08   558.10   593.47
                              808.88   832.31   855.82   894.54   957.11
                              979.40   991.48  1177.53  1184.82  1271.68
                             1454.45  1511.08  1516.07  1531.33  1539.52
                             1543.95  1636.85  1649.58  1677.95  1768.94
                             1790.18  1936.06  2025.53  2033.12  2054.90
                             2069.27  2091.42  2113.65  2124.27  2126.79
                             2138.33  2145.24  2153.49  2158.66  2166.98
                             2184.95  2200.45  2295.50  2401.30  2613.76
                             4388.10  4393.56  4406.88  4422.98  4456.18
                             4462.49  4505.51  4517.54  4528.95  4558.37
                             4570.09  4623.48  5493.25

 Zero-point correction=                           0.210672 (Hartree/Particle)
 Thermal correction to Energy=                    0.222961
 Thermal correction to Enthalpy=                  0.223905
 Thermal correction to Gibbs Free Energy=         0.172615
 Sum of electronic and zero-point Energies=           -555.784548
 Sum of electronic and thermal Energies=              -555.772259
 Sum of electronic and thermal Enthalpies=            -555.771315
 Sum of electronic and thermal Free Energies=         -555.822605

                     E (Thermal)             CV                S
                      KCal/Mol        Cal/Mol-Kelvin    Cal/Mol-Kelvin
 Total                  139.910             45.389            107.950
 Electronic               0.000              0.000              0.000
 Translational            0.889              2.981             41.248
 Rotational               0.889              2.981             30.700
 Vibrational            138.133             39.427             36.001
 Vibration     1          0.595              1.977              4.794
 Vibration     2          0.603              1.953              3.551
 Vibration     3          0.610              1.928              3.028
 Vibration     4          0.620              1.898              2.620
 Vibration     5          0.623              1.888              2.521
 Vibration     6          0.628              1.870              2.358
 Vibration     7          0.637              1.843              2.157
 Vibration     8          0.640              1.832              2.083
 Vibration     9          0.685              1.695              1.481
 Vibration    10          0.695              1.665              1.392
 Vibration    11          0.703              1.644              1.333
 Vibration    12          0.714              1.612              1.250
 Vibration    13          0.725              1.582              1.180
 Vibration    14          0.756              1.496              1.008
 Vibration    15          0.776              1.443              0.918
 Vibration    16          0.918              1.113              0.519
 Vibration    17          0.935              1.078              0.488
 Vibration    18          0.953              1.043              0.459

                           ! Non-Optimized Parameters !

 1\1\GINC-AE21\Freq\RM062X\Aug-CC-pVTZ\C9H13N1O2\DHUANG\05-Mar-2025\0\\
 #N Geom=AllCheck Guess=TCheck SCRF=Check GenChk RM062X/Aug-CC-pVTZ Fre
 q\\11\\0,1\C,-3.1041649771,-0.795187952,2.9599634672\C,-1.8991739412,-
 1.4622254592,2.3899598836\N,-1.0206703853,-2.10388193,3.2048940878\C,-
 1.1298522237,-2.1624106172,4.6463492171\C,0.0296228337,-2.6288837387,2
 .4664769071\C,1.1377873432,-3.3736884418,3.1269957652\C,-0.1867814716,
 -2.3279605523,1.1517895468\C,0.6751824735,-2.7000172179,-0.0106463006\
 C,-1.4143265272,-1.586470539,1.097299482\C,-1.9939935186,-1.0901253188

 Normal termination of Gaussian 16 at Wed Mar  5 08:50:38 2025.
