 Gaussian 16, Revision C.01,
 Gaussian 16:  ES64L-G16RevC.01  3-Jul-2019

 ------------------------------------
 # opt freq m062x/aug-cc-pvtz pop=nbo
 ------------------------------------

 --
 12
 --
 Symbolic Z-matrix:
 Charge =  0 Multiplicity = 1

 SCF Done:  E(RM062X) =  -516.632090282     A.U. after   13 cycles
 SCF Done:  E(RM062X) =  -516.673915698     A.U. after   12 cycles
 SCF Done:  E(RM062X) =  -516.683265767     A.U. after   12 cycles
 SCF Done:  E(RM062X) =  -516.683786177     A.U. after   11 cycles
 SCF Done:  E(RM062X) =  -516.683866863     A.U. after   10 cycles
 SCF Done:  E(RM062X) =  -516.683880760     A.U. after    9 cycles
 SCF Done:  E(RM062X) =  -516.683882224     A.U. after    8 cycles
 Optimization completed.
    -- Stationary point found.

 1\1\GINC-AE21\FOpt\RM062X\Aug-CC-pVTZ\C8H11N1O2\DHUANG\04-Mar-2025\0\\
 # opt freq m062x/aug-cc-pvtz pop=nbo\\12\\0,1\C,0.6134852225,-2.628027
 6227,0.2790524992\N,-0.2037628485,-2.1500696972,1.3819089436\C,-1.4231
 820513,-1.5008206423,1.2715634951\C,-1.8815295865,-1.2088256509,2.5496
 158204\C,-3.1465922527,-0.5167791573,2.9444412745\C,-0.9084384794,-1.6
 978853471,3.4355864763\C,0.109288276,-2.2700342267,2.6946615377\C,1.35
 86068669,-2.9216481251,3.1796861732\C,-2.0202410769,-1.2279203428,-0.0
 188324326\O,-1.5583887632,-1.5149356679,-1.1000867984\O,-3.2077090858,

 Normal termination of Gaussian 16 at Tue Mar  4 18:33:55 2025.

 ----------------------------------------------------------------------
 #N Geom=AllCheck Guess=TCheck SCRF=Check GenChk RM062X/Aug-CC-pVTZ Fre
 q
 ----------------------------------------------------------------------

 Structure from the checkpoint file:  "12.chk"
 --
 12
 --
 Charge =  0 Multiplicity = 1

                         Standard orientation:
 ---------------------------------------------------------------------
 Center     Atomic      Atomic             Coordinates (Angstroms)
 Number     Number       Type             X           Y           Z
 ---------------------------------------------------------------------
      1          6           0        1.077677   -2.049438   -0.000037
      2          7           0        0.826222   -0.617865   -0.000052
      3          6           0       -0.418568   -0.008620   -0.000117
      4          6           0       -0.232948    1.367718   -0.000048
      5          6           0       -1.272091    2.442604   -0.000066
      6          6           0        1.155548    1.575346    0.000028
      7          6           0        1.781895    0.342552    0.000031
      8          6           0        3.241416    0.041812    0.000093
      9          6           0       -1.640349   -0.785362   -0.000191
     10          8           0       -1.724967   -1.992688    0.000014
     11          8           0       -2.747122   -0.007508    0.000202
     12          1           0        2.151367   -2.208681    0.000017
     13          1           0        0.637970   -2.512605    0.879194
     14          1           0        0.638057   -2.512605   -0.879309
     15          1           0       -1.916737    2.372142   -0.874908
     16          1           0       -1.916661    2.372237    0.874845
     17          1           0       -0.791334    3.419016   -0.000134
     18          1           0        1.659011    2.528463    0.000066
     19          1           0        3.795044    0.977318    0.000138
     20          1           0        3.539576   -0.526851    0.882132
     21          1           0        3.539659   -0.526816   -0.881940
     22          1           0       -3.498275   -0.614677    0.000375
 ---------------------------------------------------------------------

 SCF Done:  E(RM062X) =  -516.683882224     A.U. after    1 cycles

 The electronic state is 1-A.
 Alpha  occ. eigenvalues --  -19.66456 -19.60605 -14.80529 -10.67308 -10.57885
 Alpha  occ. eigenvalues --  -10.57369 -10.56356 -10.54898 -10.54443 -10.52600
 Alpha  occ. eigenvalues --  -10.52146  -1.23202  -1.13444  -1.10753  -0.91965
 Alpha  occ. eigenvalues --   -0.88393  -0.82524  -0.80731  -0.75983  -0.70813
 Alpha  occ. eigenvalues --   -0.65863  -0.61616  -0.58680  -0.57328  -0.55951
 Alpha  occ. eigenvalues --   -0.53597  -0.52351  -0.50115  -0.49597  -0.49199
 Alpha  occ. eigenvalues --   -0.47710  -0.47189  -0.46755  -0.46024  -0.43244
 Alpha  occ. eigenvalues --   -0.43007  -0.41041  -0.39460  -0.35400  -0.29478
 Alpha  occ. eigenvalues --   -0.26907
 Alpha virt. eigenvalues --   -0.00892   0.00037   0.00537   0.00562   0.01132
 Alpha virt. eigenvalues --    0.01646   0.02226   0.02761   0.02861   0.03423
 Alpha virt. eigenvalues --    0.04008   0.04517   0.05708   0.06396   0.06893

 Mulliken charges:
               1
     1  C   -1.218953
     2  N    0.001188
     3  C    0.851529
     4  C    0.595883
     5  C   -0.875358
     6  C   -0.721564
     7  C    0.697696
     8  C   -0.800565
     9  C    0.316975
    10  O   -0.981182
    11  O   -0.491806
    12  H    0.344498
    13  H    0.322875
    14  H    0.322869
    15  H    0.250884
    16  H    0.250874
    17  H    0.066653
    18  H    0.186539
    19  H    0.085495
    20  H    0.263339
    21  H    0.263333
    22  H    0.268801
 Sum of Mulliken charges =   0.00000

 Dipole moment (field-independent basis, Debye):
    X=              1.8597    Y=              0.4383    Z=              0.0000  Tot=              1.9107
 Quadrupole moment (field-independent basis, Debye-Ang):
   XX=            -55.5201   YY=            -66.9855   ZZ=            -67.2208
   XY=             -3.7110   XZ=             -0.0004   YZ=             -0.0001

  Exact polarizability:     140.259       3.394     127.322       0.001       0.001      71.469
 Approx polarizability:     157.602       8.339     157.060       0.001       0.001      96.937

 Summary of Natural Population Analysis:

                                       Natural Population
                Natural  -----------------------------------------------
    Atom  No    Charge         Core      Valence    Rydberg      Total
 -----------------------------------------------------------------------
      C    1   -0.36601      1.99941     4.35292    0.01367     6.36601
      N    2   -0.33957      1.99931     5.31668    0.02358     7.33957
      C    3   -0.03746      1.99886     4.01186    0.02673     6.03746
      C    4   -0.00862      1.99913     3.98599    0.02350     6.00862
      C    5   -0.60644      1.99943     4.59510    0.01191     6.60644
      C    6   -0.30944      1.99906     4.29276    0.01761     6.30944
      C    7    0.20086      1.99921     3.77705    0.02288     5.79914
      C    8   -0.62844      1.99944     4.61814    0.01087     6.62844
      C    9    0.78092      1.99933     3.18678    0.03298     5.21908
      O   10   -0.64056      1.99978     6.60948    0.03130     8.64056
      O   11   -0.70137      1.99979     6.67680    0.02478     8.70137
      H   12    0.19738      0.00000     0.80054    0.00208     0.80262
      H   13    0.21791      0.00000     0.77994    0.00215     0.78209
      H   14    0.21790      0.00000     0.77995    0.00215     0.78210
      H   15    0.22313      0.00000     0.77437    0.00250     0.77687
      H   16    0.22313      0.00000     0.77437    0.00250     0.77687
      H   17    0.20530      0.00000     0.79232    0.00238     0.79470
      H   18    0.21520      0.00000     0.78205    0.00275     0.78480
      H   19    0.22634      0.00000     0.77156    0.00210     0.77366
      H   20    0.21766      0.00000     0.78011    0.00223     0.78234
      H   21    0.21766      0.00000     0.78011    0.00223     0.78234
      H   22    0.49452      0.00000     0.50225    0.00323     0.50548
 =======================================================================
   * Total *    0.00000     21.99274    59.74116    0.26610    82.00000

                      1                      2                      3
                      A                      A                      A
 Frequencies --     69.1213               100.8303               165.3551
 Red. masses --      6.7536                 3.2462                 2.3581
 Frc consts  --      0.0190                 0.0194                 0.0380
 IR Inten    --      2.1663                 0.0005                 6.3497

                      4                      5                      6
                      A                      A                      A
 Frequencies --    179.5850               187.4937               209.0630
 Red. masses --      1.1235                 1.1034                 5.2938
 Frc consts  --      0.0213                 0.0229                 0.1363
 IR Inten    --      0.5310                 0.0165                 2.2598

                      7                      8                      9
                      A                      A                      A
 Frequencies --    224.9862               237.8006               280.4068
 Red. masses --      1.1820                 2.5208                 2.7257
 Frc consts  --      0.0353                 0.0840                 0.1263
 IR Inten    --      0.3247                 0.5839                 2.2515

                     10                     11                     12
                      A                      A                      A
 Frequencies --    339.2442               345.1036               374.9362
 Red. masses --      3.7282                 2.7353                 5.0783
 Frc consts  --      0.2528                 0.1919                 0.4206
 IR Inten    --      0.0323                 3.0956                 1.8191

                     13                     14                     15
                      A                      A                      A
 Frequencies --    421.0872               567.9744               585.2783
 Red. masses --      6.1106                 1.1990                 3.8104
 Frc consts  --      0.6384                 0.2279                 0.7690
 IR Inten    --      4.0777                67.7073                 0.1204

                     16                     17                     18
                      A                      A                      A
 Frequencies --    593.3748               644.6542               658.3136
 Red. masses --      3.6664                 4.2227                 4.0458
 Frc consts  --      0.7606                 1.0339                 1.0330
 IR Inten    --      2.1664                26.6882                 2.5776

                     19                     20                     21
                      A                      A                      A
 Frequencies --    671.8029               742.1249               808.4746
 Red. masses --      3.1656                 3.7767                 7.5674
 Frc consts  --      0.8418                 1.2255                 2.9143
 IR Inten    --     29.1616                34.2726                15.3946

                     22                     23                     24
                      A                      A                      A
 Frequencies --    824.4883               873.0280              1005.2940
 Red. masses --      1.3294                 3.4865                 1.5843
 Frc consts  --      0.5325                 1.5657                 0.9434
 IR Inten    --     32.1173                 0.3120                17.9923

                     25                     26                     27
                      A                      A                      A
 Frequencies --   1010.7305              1061.6295              1064.0414
 Red. masses --      1.4592                 1.5069                 1.5113
 Frc consts  --      0.8783                 1.0006                 1.0081
 IR Inten    --      1.2302                 0.8280                 1.3194

                     28                     29                     30
                      A                      A                      A
 Frequencies --   1104.2227              1133.6959              1153.1003
 Red. masses --      2.2300                 3.7754                 1.3177
 Frc consts  --      1.6020                 2.8589                 1.0323
 IR Inten    --      4.6497               186.1718                 0.1041

                     31                     32                     33
                      A                      A                      A
 Frequencies --   1173.1518              1205.2405              1245.0153
 Red. masses --      1.9407                 1.5705                 2.2247
 Frc consts  --      1.5737                 1.3441                 2.0317
 IR Inten    --    104.7650                60.8747                76.8988

                     34                     35                     36
                      A                      A                      A
 Frequencies --   1362.6884              1396.8790              1416.0761
 Red. masses --      3.2723                 2.1452                 1.2634
 Frc consts  --      3.5801                 2.4663                 1.4926
 IR Inten    --     34.0359                10.0942                 0.0365

                     37                     38                     39
                      A                      A                      A
 Frequencies --   1424.0163              1448.6612              1471.9737
 Red. masses --      1.7609                 2.6087                 1.3277
 Frc consts  --      2.1039                 3.2256                 1.6950
 IR Inten    --     10.0019               132.7114                41.7588

                     40                     41                     42
                      A                      A                      A
 Frequencies --   1482.8457              1487.8490              1490.1306
 Red. masses --      1.0394                 1.4882                 1.0424
 Frc consts  --      1.3465                 1.9411                 1.3638
 IR Inten    --     13.9193                99.9448                 8.4926

                     43                     44                     45
                      A                      A                      A
 Frequencies --   1502.1230              1504.1341              1516.3259
 Red. masses --      1.0393                 1.1756                 1.3129
 Frc consts  --      1.3817                 1.5670                 1.7786
 IR Inten    --      0.0619                 5.0829                35.1498

                     46                     47                     48
                      A                      A                      A
 Frequencies --   1543.5880              1559.3719              1620.6494
 Red. masses --      3.3785                 3.7922                 6.6002
 Frc consts  --      4.7428                 5.4330                10.2138
 IR Inten    --     28.9407                74.9412                 2.5194

                     49                     50                     51
                      A                      A                      A
 Frequencies --   1804.4049              3061.0060              3074.0566
 Red. masses --      9.2356                 1.0386                 1.0352
 Frc consts  --     17.7167                 5.7336                 5.7638
 IR Inten    --    601.0244                21.4067                21.2266

                     52                     53                     54
                      A                      A                      A
 Frequencies --   3096.0803              3114.9282              3136.0085
 Red. masses --      1.0328                 1.1014                 1.1007
 Frc consts  --      5.8331                 6.2964                 6.3780
 IR Inten    --     23.1104                 8.3362                 6.7204

                     55                     56                     57
                      A                      A                      A
 Frequencies --   3149.9913              3159.4685              3163.0206
 Red. masses --      1.1032                 1.0989                 1.1051
 Frc consts  --      6.4495                 6.4632                 6.5139
 IR Inten    --     14.2214                 7.0416                 5.5385

                     58                     59                     60
                      A                      A                      A
 Frequencies --   3187.8984              3259.2827              3820.2140
 Red. masses --      1.1041                 1.0966                 1.0645
 Frc consts  --      6.6108                 6.8637                 9.1530
 IR Inten    --      6.2777                 2.6393               129.8368

 - Thermochemistry -
 -------------------
 Temperature   298.150 Kelvin.  Pressure   1.00000 Atm.
 Atom     1 has atomic number  6 and mass  12.00000

 Molecular mass:   153.07898 amu.
 Principal axes and moments of inertia in atomic units:
                           1         2         3
     Eigenvalues --  1088.306441785.645682840.60397
           X            0.99771  -0.06760   0.00000
           Y            0.06760   0.99771   0.00000
           Z            0.00000   0.00000   1.00000
 This molecule is an asymmetric top.
 Rotational symmetry number  1.
 Warning -- assumption of classical behavior for rotation
           may cause significant error
 Rotational temperatures (Kelvin)      0.07959     0.04851     0.03049
 Rotational constants (GHZ):           1.65830     1.01069     0.63534
 Zero-point vibrational energy     481582.6 (Joules/Mol)
                                  115.10100 (Kcal/Mol)
 Warning -- explicit consideration of  16 degrees of freedom as
           vibrations may cause significant error
 Vibrational temperatures:     99.45   145.07   237.91   258.38   269.76
          (Kelvin)            300.80   323.70   342.14   403.44   488.10
                              496.53   539.45   605.85   817.19   842.08
                              853.73   927.51   947.17   966.57  1067.75
                             1163.21  1186.25  1256.09  1446.39  1454.22
                             1527.45  1530.92  1588.73  1631.14  1659.05
                             1687.90  1734.07  1791.30  1960.60  2009.80
                             2037.42  2048.84  2084.30  2117.84  2133.48
                             2140.68  2143.97  2161.22  2164.11  2181.65
                             2220.88  2243.59  2331.75  2596.14  4404.10
                             4422.88  4454.57  4481.69  4512.02  4532.13
                             4545.77  4550.88  4586.67  4689.38  5496.44

 Zero-point correction=                           0.183425 (Hartree/Particle)
 Thermal correction to Energy=                    0.194495
 Thermal correction to Enthalpy=                  0.195439
 Thermal correction to Gibbs Free Energy=         0.147173
 Sum of electronic and zero-point Energies=           -516.500457
 Sum of electronic and thermal Energies=              -516.489388
 Sum of electronic and thermal Enthalpies=            -516.488443
 Sum of electronic and thermal Free Energies=         -516.536709

                     E (Thermal)             CV                S
                      KCal/Mol        Cal/Mol-Kelvin    Cal/Mol-Kelvin
 Total                  122.047             41.204            101.583
 Electronic               0.000              0.000              0.000
 Translational            0.889              2.981             40.987
 Rotational               0.889              2.981             30.091
 Vibrational            120.270             35.243             30.505
 Vibration     1          0.598              1.969              4.178
 Vibration     2          0.604              1.948              3.438
 Vibration     3          0.624              1.885              2.488
 Vibration     4          0.629              1.867              2.333
 Vibration     5          0.632              1.857              2.252
 Vibration     6          0.642              1.827              2.052
 Vibration     7          0.650              1.803              1.919
 Vibration     8          0.656              1.783              1.819
 Vibration     9          0.680              1.710              1.531
 Vibration    10          0.719              1.597              1.216
 Vibration    11          0.723              1.585              1.188
 Vibration    12          0.746              1.523              1.060
 Vibration    13          0.784              1.424              0.888
 Vibration    14          0.924              1.101              0.508
 Vibration    15          0.942              1.063              0.476
 Vibration    16          0.951              1.046              0.461

 Optimization completed.
    -- Stationary point found.

 1\1\GINC-AE21\Freq\RM062X\Aug-CC-pVTZ\C8H11N1O2\DHUANG\04-Mar-2025\0\\
 #N Geom=AllCheck Guess=TCheck SCRF=Check GenChk RM062X/Aug-CC-pVTZ Fre
 q\\12\\0,1\C,0.6134852225,-2.6280276227,0.2790524992\N,-0.2037628485,-
 2.1500696972,1.3819089436\C,-1.4231820513,-1.5008206423,1.2715634951\C
 ,-1.8815295865,-1.2088256509,2.5496158204\C,-3.1465922527,-0.516779157
 3,2.9444412745\C,-0.9084384794,-1.6978853471,3.4355864763\C,0.10928827
 6,-2.2700342267,2.6946615377\C,1.3586068669,-2.9216481251,3.1796861732
 \C,-2.0202410769,-1.2279203428,-0.0188324326\O,-1.5583887632,-1.514935

 Normal termination of Gaussian 16 at Tue Mar  4 20:05:11 2025.
