 Gaussian 16, Revision C.01,
 Gaussian 16:  ES64L-G16RevC.01  3-Jul-2019

 ------------------------------------
 # opt freq m062x/aug-cc-pvtz pop=nbo
 ------------------------------------

 --
 13
 --
 Symbolic Z-matrix:
 Charge =  0 Multiplicity = 1

 SCF Done:  E(RM062X) =  -438.015075405     A.U. after   14 cycles
 SCF Done:  E(RM062X) =  -438.053685266     A.U. after   12 cycles
 SCF Done:  E(RM062X) =  -438.059840521     A.U. after   12 cycles
 SCF Done:  E(RM062X) =  -438.060220690     A.U. after   10 cycles
 SCF Done:  E(RM062X) =  -438.060268247     A.U. after   10 cycles
 SCF Done:  E(RM062X) =  -438.060271805     A.U. after    9 cycles
 SCF Done:  E(RM062X) =  -438.060272148     A.U. after    8 cycles
 Optimization completed.
    -- Stationary point found.
 Normal termination of Gaussian 16 at Tue Mar  4 17:43:46 2025.

 ----------------------------------------------------------------------
 #N Geom=AllCheck Guess=TCheck SCRF=Check GenChk RM062X/Aug-CC-pVTZ Fre
 q
 ----------------------------------------------------------------------

 Structure from the checkpoint file:  "13.chk"
 --
 13
 --
 Charge =  0 Multiplicity = 1

                         Standard orientation:
 ---------------------------------------------------------------------
 Center     Atomic      Atomic             Coordinates (Angstroms)
 Number     Number       Type             X           Y           Z
 ---------------------------------------------------------------------
      1          6           0       -0.693786    2.085044   -0.000021
      2          7           0       -0.904745    0.646728   -0.000018
      3          6           0        0.061199   -0.332118   -0.000276
      4          6           0       -0.569131   -1.562176   -0.000134
      5          6           0       -1.951186   -1.322547    0.000101
      6          6           0       -2.117780    0.047678    0.000182
      7          6           0        1.481101   -0.023648   -0.000556
      8          8           0        1.968315    1.081674    0.000191
      9          8           0        2.239975   -1.138229    0.000231
     10          1           0       -1.669992    2.562378    0.000112
     11          1           0       -0.133472    2.386999    0.880558
     12          1           0       -0.133700    2.387016   -0.880734
     13          1           0       -0.061411   -2.510968   -0.000249
     14          1           0       -2.741373   -2.052503    0.000211
     15          1           0       -3.015341    0.642780    0.000347
     16          1           0        3.159676   -0.843760    0.000731
 ---------------------------------------------------------------------

 SCF Done:  E(RM062X) =  -438.060272148     A.U. after    1 cycles

 The electronic state is 1-A.
 Alpha  occ. eigenvalues --  -19.67096 -19.61537 -14.81591 -10.68153 -10.58096
 Alpha  occ. eigenvalues --  -10.57631 -10.57406 -10.54052 -10.53340  -1.23967
 Alpha  occ. eigenvalues --   -1.14343  -1.11630  -0.91776  -0.85939  -0.79451
 Alpha  occ. eigenvalues --   -0.74423  -0.67590  -0.63374  -0.61920  -0.57871
 Alpha  occ. eigenvalues --   -0.56159  -0.54226  -0.52611  -0.50909  -0.49540
 Alpha  occ. eigenvalues --   -0.47923  -0.45991  -0.45486  -0.44900  -0.40211
 Alpha  occ. eigenvalues --   -0.36201  -0.31005  -0.28559
 Alpha virt. eigenvalues --   -0.00669  -0.00231   0.00189   0.00717   0.01925
 Alpha virt. eigenvalues --    0.01962   0.02703   0.03345   0.05055   0.05303
 Alpha virt. eigenvalues --    0.05372   0.05986   0.06582   0.07215   0.07538

 Mulliken charges:
               1
     1  C   -0.969266
     2  N    0.194317
     3  C    1.000650
     4  C   -0.645038
     5  C   -0.623505
     6  C   -0.391014
     7  C    0.522576
     8  O   -0.919117
     9  O   -0.553216
    10  H    0.252926
    11  H    0.315355
    12  H    0.315339
    13  H    0.258875
    14  H    0.148291
    15  H    0.816801
    16  H    0.276026
 Sum of Mulliken charges =   0.00000

 Dipole moment (field-independent basis, Debye):
    X=             -1.3341    Y=              0.4448    Z=             -0.0003  Tot=              1.4063
 Quadrupole moment (field-independent basis, Debye-Ang):
   XX=            -46.0541   YY=            -50.2657   ZZ=            -54.8436
   XY=             -5.7955   XZ=              0.0001   YZ=             -0.0007

  Exact polarizability:     109.976       4.711      96.069      -0.003       0.001      54.527
 Approx polarizability:     130.127       7.293     120.752      -0.004       0.004      71.580

 Summary of Natural Population Analysis:

                                       Natural Population
                Natural  -----------------------------------------------
    Atom  No    Charge         Core      Valence    Rydberg      Total
 -----------------------------------------------------------------------
      C    1   -0.36042      1.99942     4.34686    0.01415     6.36042
      N    2   -0.33576      1.99937     5.31030    0.02609     7.33576
      C    3   -0.02510      1.99900     3.99728    0.02883     6.02510
      C    4   -0.21582      1.99921     4.20030    0.01631     6.21582
      C    5   -0.30534      1.99929     4.28889    0.01715     6.30534
      C    6   -0.00342      1.99928     3.98564    0.01850     6.00342
      C    7    0.78284      1.99933     3.18419    0.03363     5.21716
      O    8   -0.62828      1.99978     6.59710    0.03140     8.62828
      O    9   -0.69480      1.99979     6.66933    0.02568     8.69480
      H   10    0.19714      0.00000     0.80062    0.00224     0.80286
      H   11    0.21723      0.00000     0.78061    0.00216     0.78277
      H   12    0.21721      0.00000     0.78063    0.00216     0.78279
      H   13    0.23068      0.00000     0.76606    0.00326     0.76932
      H   14    0.22196      0.00000     0.77501    0.00302     0.77804
      H   15    0.20667      0.00000     0.79010    0.00323     0.79333
      H   16    0.49518      0.00000     0.50167    0.00315     0.50482
 =======================================================================
   * Total *    0.00000     17.99446    47.77457    0.23097    66.00000

                      1                      2                      3
                      A                      A                      A
 Frequencies --     73.2790               166.7291               183.9678
 Red. masses --      6.8060                 1.9550                 1.8422
 Frc consts  --      0.0215                 0.0320                 0.0367
 IR Inten    --      2.2975                 0.0008                 1.7374

                      4                      5                      6
                      A                      A                      A
 Frequencies --    207.5513               228.1919               342.8004
 Red. masses --      5.2153                 2.3985                 3.5734
 Frc consts  --      0.1324                 0.0736                 0.2474
 IR Inten    --      4.0979                 4.3472                 2.5947

                      7                      8                      9
                      A                      A                      A
 Frequencies --    436.8540               528.9229               547.0732
 Red. masses --      7.4587                 4.3886                 1.2051
 Frc consts  --      0.8387                 0.7234                 0.2125
 IR Inten    --      5.8774                 5.2774                79.2744

                     10                     11                     12
                      A                      A                      A
 Frequencies --    632.0502               648.1109               695.6571
 Red. masses --      2.9231                 3.6534                 4.8303
 Frc consts  --      0.6880                 0.9042                 1.3773
 IR Inten    --      2.4672                17.1839                38.6359

                     13                     14                     15
                      A                      A                      A
 Frequencies --    744.1132               767.1239               796.0787
 Red. masses --      3.9888                 1.1993                 4.1181
 Frc consts  --      1.3013                 0.4158                 1.5377
 IR Inten    --     22.8904                86.7506                22.2604

                     16                     17                     18
                      A                      A                      A
 Frequencies --    866.6854               909.5717               925.7029
 Red. masses --      1.6266                 4.9575                 1.3799
 Frc consts  --      0.7199                 2.4165                 0.6967
 IR Inten    --      0.2322                 0.1375                 1.0151

                     19                     20                     21
                      A                      A                      A
 Frequencies --   1033.3327              1081.5767              1113.6230
 Red. masses --      1.3617                 1.6407                 1.3406
 Frc consts  --      0.8567                 1.1308                 0.9795
 IR Inten    --     13.2220                50.4253                28.5588

                     22                     23                     24
                      A                      A                      A
 Frequencies --   1137.0614              1154.5565              1233.2285
 Red. masses --      3.2511                 1.3200                 1.8903
 Frc consts  --      2.4766                 1.0367                 1.6939
 IR Inten    --    204.7782                 0.0693               167.3145

                     25                     26                     27
                      A                      A                      A
 Frequencies --   1259.4486              1336.1671              1402.3640
 Red. masses --      1.4757                 3.4177                 3.4544
 Frc consts  --      1.3791                 3.5951                 4.0026
 IR Inten    --      4.0813                39.7279                20.7327

                     28                     29                     30
                      A                      A                      A
 Frequencies --   1443.9216              1461.3556              1470.8596
 Red. masses --      3.0395                 1.6763                 3.2606
 Frc consts  --      3.7337                 2.1092                 4.1561
 IR Inten    --     12.3731                71.9112               150.9297

                     31                     32                     33
                      A                      A                      A
 Frequencies --   1486.0561              1518.3714              1545.5569
 Red. masses --      1.0382                 1.2747                 3.2693
 Frc consts  --      1.3508                 1.7315                 4.6012
 IR Inten    --      9.7254                21.9123                30.3346

                     34                     35                     36
                      A                      A                      A
 Frequencies --   1598.8060              1818.3562              3092.0526
 Red. masses --      5.0145                 9.6334                 1.0317
 Frc consts  --      7.5522                18.7667                 5.8118
 IR Inten    --     46.7614               514.2940                21.9977

                     37                     38                     39
                      A                      A                      A
 Frequencies --   3167.7840              3177.5109              3269.2973
 Red. masses --      1.1055                 1.1061                 1.0909
 Frc consts  --      6.5360                 6.5800                 6.8697
 IR Inten    --      5.0175                 5.8818                 0.9335

                     40                     41                     42
                      A                      A                      A
 Frequencies --   3282.6037              3294.3632              3826.5213
 Red. masses --      1.0966                 1.1051                 1.0646
 Frc consts  --      6.9620                 7.0662                 9.1839
 IR Inten    --      0.1492                 0.4039               130.6880

 - Thermochemistry -
 -------------------
 Temperature   298.150 Kelvin.  Pressure   1.00000 Atm.
 Atom     1 has atomic number  6 and mass  12.00000

 Molecular mass:   125.04768 amu.
 Principal axes and moments of inertia in atomic units:
                           1         2         3
     Eigenvalues --   643.999311144.076861776.91146
           X            0.99963  -0.02717   0.00000
           Y            0.02717   0.99963   0.00000
           Z            0.00000   0.00000   1.00000
 This molecule is an asymmetric top.
 Rotational symmetry number  1.
 Warning -- assumption of classical behavior for rotation
           may cause significant error
 Rotational temperatures (Kelvin)      0.13449     0.07571     0.04874
 Rotational constants (GHZ):           2.80240     1.57747     1.01566
 Zero-point vibrational energy     334387.6 (Joules/Mol)
                                   79.92055 (Kcal/Mol)
 Warning -- explicit consideration of   9 degrees of freedom as
           vibrations may cause significant error
 Vibrational temperatures:    105.43   239.89   264.69   298.62   328.32
          (Kelvin)            493.21   628.54   761.00   787.12   909.38
                              932.49  1000.90  1070.61  1103.72  1145.38
                             1246.97  1308.67  1331.88  1486.74  1556.15
                             1602.26  1635.98  1661.15  1774.34  1812.07
                             1922.45  2017.69  2077.48  2102.56  2116.24
                             2138.10  2184.60  2223.71  2300.33  2616.21
                             4448.77  4557.73  4571.73  4703.79  4722.93
                             4739.85  5505.51

 Zero-point correction=                           0.127362 (Hartree/Particle)
 Thermal correction to Energy=                    0.135313
 Thermal correction to Enthalpy=                  0.136257
 Thermal correction to Gibbs Free Energy=         0.094581
 Sum of electronic and zero-point Energies=           -437.932911
 Sum of electronic and thermal Energies=              -437.924959
 Sum of electronic and thermal Enthalpies=            -437.924015
 Sum of electronic and thermal Free Energies=         -437.965692

                     E (Thermal)             CV                S
                      KCal/Mol        Cal/Mol-Kelvin    Cal/Mol-Kelvin
 Total                   84.910             29.489             87.716
 Electronic               0.000              0.000              0.000
 Translational            0.889              2.981             40.384
 Rotational               0.889              2.981             28.661
 Vibrational             83.133             23.527             18.671
 Vibration     1          0.599              1.967              4.063
 Vibration     2          0.624              1.883              2.472
 Vibration     3          0.631              1.862              2.288
 Vibration     4          0.641              1.829              2.065
 Vibration     5          0.651              1.798              1.893
 Vibration     6          0.722              1.590              1.199
 Vibration     7          0.797              1.390              0.837
 Vibration     8          0.884              1.186              0.590
 Vibration     9          0.902              1.146              0.550

 Optimization completed.
    -- Stationary point found.
 Normal termination of Gaussian 16 at Tue Mar  4 18:16:48 2025.
