 Gaussian 16, Revision C.01,
 Gaussian 16:  ES64L-G16RevC.01  3-Jul-2019

 ------------------------------------
 # opt freq m062x/aug-cc-pvtz pop=nbo
 ------------------------------------

 --
 14
 --
 Symbolic Z-matrix:
 Charge =  0 Multiplicity = 1

 SCF Done:  E(RM062X) =  -454.050425494     A.U. after   14 cycles
 SCF Done:  E(RM062X) =  -454.094374086     A.U. after   12 cycles
 SCF Done:  E(RM062X) =  -454.101939350     A.U. after   12 cycles
 SCF Done:  E(RM062X) =  -454.102462538     A.U. after   10 cycles
 SCF Done:  E(RM062X) =  -454.102577770     A.U. after   10 cycles
 SCF Done:  E(RM062X) =  -454.102602068     A.U. after   10 cycles
 SCF Done:  E(RM062X) =  -454.102604965     A.U. after    8 cycles
 Optimization completed.
    -- Stationary point found.
 Normal termination of Gaussian 16 at Tue Mar  4 17:40:14 2025.

 ----------------------------------------------------------------------
 #N Geom=AllCheck Guess=TCheck SCRF=Check GenChk RM062X/Aug-CC-pVTZ Fre
 q
 ----------------------------------------------------------------------

 Structure from the checkpoint file:  "14.chk"
 --
 14
 --
 Charge =  0 Multiplicity = 1

                         Standard orientation:
 ---------------------------------------------------------------------
 Center     Atomic      Atomic             Coordinates (Angstroms)
 Number     Number       Type             X           Y           Z
 ---------------------------------------------------------------------
      1          6           0       -0.578184    2.089888    0.000192
      2          7           0       -0.850703    0.659520    0.000050
      3          6           0        0.016192   -0.400474   -0.000013
      4          7           0       -0.621544   -1.550506   -0.000091
      5          6           0       -1.938893   -1.240454   -0.000105
      6          6           0       -2.100732    0.122145   -0.000008
      7          6           0        1.488330   -0.314559   -0.000039
      8          8           0        2.228081   -1.252577    0.000340
      9          8           0        1.936933    0.964288   -0.000360
     10          1           0       -1.533348    2.606673    0.000611
     11          1           0       -0.011616    2.369236    0.883443
     12          1           0       -0.012216    2.369538   -0.883352
     13          1           0       -2.702470   -1.999033   -0.000177
     14          1           0       -2.977112    0.746065    0.000046
     15          1           0        2.902097    0.911462   -0.000280
 ---------------------------------------------------------------------

 SCF Done:  E(RM062X) =  -454.102604965     A.U. after    1 cycles

 The electronic state is 1-A.
 Alpha  occ. eigenvalues --  -19.68467 -19.62290 -14.83246 -14.74590 -10.68973
 Alpha  occ. eigenvalues --  -10.61173 -10.59757 -10.58425 -10.56341  -1.25138
 Alpha  occ. eigenvalues --   -1.15648  -1.15338  -1.01281  -0.87868  -0.83568
 Alpha  occ. eigenvalues --   -0.76101  -0.70149  -0.65996  -0.62938  -0.58834
 Alpha  occ. eigenvalues --   -0.57987  -0.55886  -0.53739  -0.52589  -0.51132
 Alpha  occ. eigenvalues --   -0.48570  -0.48552  -0.47544  -0.41117  -0.37157
 Alpha  occ. eigenvalues --   -0.35458  -0.35141  -0.30069
 Alpha virt. eigenvalues --   -0.01478  -0.01279  -0.00218   0.00789   0.01283
 Alpha virt. eigenvalues --    0.02089   0.02933   0.03602   0.04536   0.04827
 Alpha virt. eigenvalues --    0.05816   0.06494   0.06709   0.07073   0.07574

 Mulliken charges:
               1
     1  C   -0.930101
     2  N    0.401830
     3  C    0.488215
     4  N   -0.717039
     5  C   -0.222482
     6  C   -0.560255
     7  C    0.553609
     8  O   -0.899500
     9  O   -0.452996
    10  H    0.270621
    11  H    0.332861
    12  H    0.332883
    13  H    0.471712
    14  H    0.627513
    15  H    0.303128
 Sum of Mulliken charges =   0.00000

 Dipole moment (field-independent basis, Debye):
    X=             -1.8319    Y=              5.3632    Z=             -0.0002  Tot=              5.6674
 Quadrupole moment (field-independent basis, Debye-Ang):
   XX=            -44.6582   YY=            -54.3877   ZZ=            -52.8923
   XY=              4.7183   XZ=             -0.0017   YZ=              0.0019

  Exact polarizability:     104.339       0.319      88.261       0.001      -0.001      50.707
 Approx polarizability:     122.996      -2.825     111.064       0.003      -0.002      66.755

 Summary of Natural Population Analysis:

                                       Natural Population
                Natural  -----------------------------------------------
    Atom  No    Charge         Core      Valence    Rydberg      Total
 -----------------------------------------------------------------------
      C    1   -0.36335      1.99941     4.34935    0.01459     6.36335
      N    2   -0.34832      1.99937     5.32240    0.02655     7.34832
      C    3    0.20043      1.99914     3.76569    0.03474     5.79957
      N    4   -0.39958      1.99948     5.36416    0.03594     7.39958
      C    5   -0.07766      1.99932     4.05426    0.02408     6.07766
      C    6   -0.05776      1.99925     4.03997    0.01854     6.05776
      C    7    0.76988      1.99940     3.19619    0.03452     5.23012
      O    8   -0.56322      1.99976     6.53019    0.03326     8.56322
      O    9   -0.71689      1.99979     6.69358    0.02352     8.71689
      H   10    0.20253      0.00000     0.79517    0.00230     0.79747
      H   11    0.21658      0.00000     0.78119    0.00223     0.78342
      H   12    0.21657      0.00000     0.78120    0.00223     0.78343
      H   13    0.20700      0.00000     0.78961    0.00340     0.79300
      H   14    0.21258      0.00000     0.78386    0.00356     0.78742
      H   15    0.50122      0.00000     0.49534    0.00345     0.49878
 =======================================================================
   * Total *    0.00000     17.99494    47.74217    0.26289    66.00000

                      1                      2                      3
                      A                      A                      A
 Frequencies --     46.0843               146.6242               175.8700
 Red. masses --      5.8459                 1.1097                 4.5572
 Frc consts  --      0.0073                 0.0141                 0.0830
 IR Inten    --      0.0444                 0.0255                 2.0274

                      4                      5                      6
                      A                      A                      A
 Frequencies --    231.5501               241.3554               344.4710
 Red. masses --      5.9963                 3.4274                 3.5989
 Frc consts  --      0.1894                 0.1176                 0.2516
 IR Inten    --      0.2415                 2.9476                 2.6818

                      7                      8                      9
                      A                      A                      A
 Frequencies --    425.9609               544.2647               570.8267
 Red. masses --      8.1854                 5.0990                 1.2867
 Frc consts  --      0.8750                 0.8899                 0.2470
 IR Inten    --      6.3183                 0.4968                51.6912

                     10                     11                     12
                      A                      A                      A
 Frequencies --    654.1121               685.7627               695.4428
 Red. masses --      2.8907                 4.3357                 5.0589
 Frc consts  --      0.7287                 1.2013                 1.4415
 IR Inten    --      8.5261                31.6809                60.2142

                     13                     14                     15
                      A                      A                      A
 Frequencies --    749.2927               797.7495               811.9007
 Red. masses --      4.4261                 1.3866                 5.4817
 Frc consts  --      1.4641                 0.5199                 2.1290
 IR Inten    --     31.9017                24.0810                34.4037

                     16                     17                     18
                      A                      A                      A
 Frequencies --    908.9208               935.4421              1077.3221
 Red. masses --      1.4035                 6.2178                 1.8371
 Frc consts  --      0.6831                 3.2057                 1.2562
 IR Inten    --      2.1483                 6.8634                23.3687

                     19                     20                     21
                      A                      A                      A
 Frequencies --   1105.8347              1147.2702              1155.1363
 Red. masses --      1.2663                 3.8733                 1.3202
 Frc consts  --      0.9124                 3.0037                 1.0379
 IR Inten    --      2.1187               271.1908                 0.0943

                     22                     23                     24
                      A                      A                      A
 Frequencies --   1189.0825              1239.5155              1337.5285
 Red. masses --      2.0304                 1.8967                 3.0820
 Frc consts  --      1.6914                 1.7169                 3.2485
 IR Inten    --     31.1720                44.6502                11.8644

                     25                     26                     27
                      A                      A                      A
 Frequencies --   1346.4340              1421.7694              1460.1912
 Red. masses --      3.1999                 4.2542                 1.3927
 Frc consts  --      3.4179                 5.0667                 1.7495
 IR Inten    --     35.1326                15.7622                12.0394

                     28                     29                     30
                      A                      A                      A
 Frequencies --   1469.0154              1489.2898              1517.3933
 Red. masses --      4.6205                 1.0387                 1.1393
 Frc consts  --      5.8748                 1.3573                 1.5455
 IR Inten    --    138.3956                10.2162                22.0108

                     31                     32                     33
                      A                      A                      A
 Frequencies --   1539.7165              1579.0418              1874.9616
 Red. masses --      3.3352                 5.8713                10.5305
 Frc consts  --      4.6586                 8.6253                21.8113
 IR Inten    --     68.9155                22.0824               462.9597

                     34                     35                     36
                      A                      A                      A
 Frequencies --   3098.6969              3176.6350              3183.6842
 Red. masses --      1.0318                 1.1060                 1.1060
 Frc consts  --      5.8373                 6.5757                 6.6051
 IR Inten    --     18.4306                 4.1418                 4.9688

                     37                     38                     39
                      A                      A                      A
 Frequencies --   3272.9413              3293.2991              3811.9701
 Red. masses --      1.0914                 1.1062                 1.0645
 Frc consts  --      6.8886                 7.0689                 9.1140
 IR Inten    --      2.8285                 0.5077               128.7621

 - Thermochemistry -
 -------------------
 Temperature   298.150 Kelvin.  Pressure   1.00000 Atm.
 Atom     1 has atomic number  6 and mass  12.00000

 Molecular mass:   126.04293 amu.
 Principal axes and moments of inertia in atomic units:
                           1         2         3
     Eigenvalues --   637.979591114.947471741.69249
           X            0.99994   0.01136   0.00000
           Y           -0.01136   0.99994   0.00001
           Z            0.00000  -0.00001   1.00000
 This molecule is an asymmetric top.
 Rotational symmetry number  1.
 Warning -- assumption of classical behavior for rotation
           may cause significant error
 Rotational temperatures (Kelvin)      0.13576     0.07768     0.04973
 Rotational constants (GHZ):           2.82884     1.61868     1.03620
 Zero-point vibrational energy     303566.5 (Joules/Mol)
                                   72.55414 (Kcal/Mol)
 Warning -- explicit consideration of   9 degrees of freedom as
           vibrations may cause significant error
 Vibrational temperatures:     66.30   210.96   253.04   333.15   347.26
          (Kelvin)            495.62   612.86   783.08   821.29   941.12
                              986.66  1000.59  1078.07  1147.78  1168.14
                             1307.73  1345.89  1550.03  1591.05  1650.67
                             1661.98  1710.82  1783.39  1924.41  1937.22
                             2045.61  2100.89  2113.59  2142.76  2183.19
                             2215.31  2271.89  2697.65  4458.33  4570.47
                             4580.61  4709.03  4738.32  5484.57

 Zero-point correction=                           0.115622 (Hartree/Particle)
 Thermal correction to Energy=                    0.123474
 Thermal correction to Enthalpy=                  0.124418
 Thermal correction to Gibbs Free Energy=         0.082502
 Sum of electronic and zero-point Energies=           -453.986983
 Sum of electronic and thermal Energies=              -453.979131
 Sum of electronic and thermal Enthalpies=            -453.978187
 Sum of electronic and thermal Free Energies=         -454.020103

                     E (Thermal)             CV                S
                      KCal/Mol        Cal/Mol-Kelvin    Cal/Mol-Kelvin
 Total                   77.481             28.375             88.221
 Electronic               0.000              0.000              0.000
 Translational            0.889              2.981             40.408
 Rotational               0.889              2.981             28.606
 Vibrational             75.704             22.414             19.206
 Vibration     1          0.595              1.979              4.979
 Vibration     2          0.617              1.906              2.716
 Vibration     3          0.628              1.872              2.372
 Vibration     4          0.653              1.793              1.867
 Vibration     5          0.658              1.777              1.793
 Vibration     6          0.723              1.587              1.191
 Vibration     7          0.788              1.414              0.872
 Vibration     8          0.899              1.152              0.556
 Vibration     9          0.927              1.094              0.503

 Optimization completed.
    -- Stationary point found.
 Normal termination of Gaussian 16 at Tue Mar  4 18:10:27 2025.
