 Gaussian 16, Revision C.01,
 Gaussian 16:  ES64L-G16RevC.01  3-Jul-2019

 ------------------------------------
 # opt freq m062x/aug-cc-pvtz pop=nbo
 ------------------------------------

 --
 15
 --
 Symbolic Z-matrix:
 Charge =  0 Multiplicity = 1

 SCF Done:  E(RM062X) =  -454.055757898     A.U. after   14 cycles
 SCF Done:  E(RM062X) =  -454.099873461     A.U. after   12 cycles
 SCF Done:  E(RM062X) =  -454.106504415     A.U. after   12 cycles
 SCF Done:  E(RM062X) =  -454.107030358     A.U. after   10 cycles
 SCF Done:  E(RM062X) =  -454.107104624     A.U. after    9 cycles
 SCF Done:  E(RM062X) =  -454.107113985     A.U. after    9 cycles
 SCF Done:  E(RM062X) =  -454.107114912     A.U. after    7 cycles
 SCF Done:  E(RM062X) =  -454.107115274     A.U. after    7 cycles
 SCF Done:  E(RM062X) =  -454.107115798     A.U. after    7 cycles
 SCF Done:  E(RM062X) =  -454.107116958     A.U. after    8 cycles
 SCF Done:  E(RM062X) =  -454.107416597     A.U. after   11 cycles
 SCF Done:  E(RM062X) =  -454.107497856     A.U. after   11 cycles
 SCF Done:  E(RM062X) =  -454.107575200     A.U. after   11 cycles
 SCF Done:  E(RM062X) =  -454.107560976     A.U. after   10 cycles
 SCF Done:  E(RM062X) =  -454.107626983     A.U. after   10 cycles
 SCF Done:  E(RM062X) =  -454.107674797     A.U. after   11 cycles
 SCF Done:  E(RM062X) =  -454.107689764     A.U. after   10 cycles
 SCF Done:  E(RM062X) =  -454.107692573     A.U. after    8 cycles
 SCF Done:  E(RM062X) =  -454.107692894     A.U. after    7 cycles
 Optimization completed.
    -- Stationary point found.
 Normal termination of Gaussian 16 at Tue Mar  4 19:15:13 2025.

 ----------------------------------------------------------------------
 #N Geom=AllCheck Guess=TCheck SCRF=Check GenChk RM062X/Aug-CC-pVTZ Fre
 q
 ----------------------------------------------------------------------

 Structure from the checkpoint file:  "15.chk"
 --
 15
 --
 Charge =  0 Multiplicity = 1

                         Standard orientation:
 ---------------------------------------------------------------------
 Center     Atomic      Atomic             Coordinates (Angstroms)
 Number     Number       Type             X           Y           Z
 ---------------------------------------------------------------------
      1          6           0        3.056759    0.709940   -0.000029
      2          7           0        1.730923    0.125388    0.000455
      3          6           0        1.426029   -1.205167   -0.000128
      4          7           0        0.142122   -1.420065   -0.000509
      5          6           0        0.546622    0.795260    0.000330
      6          6           0       -0.423456   -0.174031   -0.000264
      7          6           0       -1.877838    0.032245   -0.000013
      8          8           0       -2.716021   -0.822368    0.000587
      9          8           0       -2.184720    1.352793   -0.000447
     10          1           0        3.201749    1.320516   -0.888955
     11          1           0        3.201620    1.322207    0.887747
     12          1           0        3.789269   -0.092710    0.000853
     13          1           0        2.197344   -1.958847   -0.000070
     14          1           0        0.484668    1.868957    0.000419
     15          1           0       -3.148734    1.409727   -0.000118
 ---------------------------------------------------------------------

 SCF Done:  E(RM062X) =  -454.107692894     A.U. after    1 cycles

 The electronic state is 1-A.
 Alpha  occ. eigenvalues --  -19.66698 -19.60958 -14.83041 -14.74467 -10.67306
 Alpha  occ. eigenvalues --  -10.60755 -10.60709 -10.58869 -10.57297  -1.23357
 Alpha  occ. eigenvalues --   -1.15898  -1.13756  -1.01566  -0.87970  -0.84085
 Alpha  occ. eigenvalues --   -0.76210  -0.68462  -0.66571  -0.63180  -0.57670
 Alpha  occ. eigenvalues --   -0.57267  -0.55903  -0.53519  -0.52685  -0.50711
 Alpha  occ. eigenvalues --   -0.49617  -0.48643  -0.47466  -0.39759  -0.36124
 Alpha  occ. eigenvalues --   -0.35345  -0.35110  -0.30542
 Alpha virt. eigenvalues --   -0.01686  -0.00195  -0.00055   0.00615   0.01244
 Alpha virt. eigenvalues --    0.01767   0.03150   0.03984   0.04031   0.04822
 Alpha virt. eigenvalues --    0.05049   0.05944   0.06156   0.07586   0.07897

 Mulliken charges:
               1
     1  C   -0.904367
     2  N    0.172759
     3  C   -0.339640
     4  N   -0.873454
     5  C   -0.716903
     6  C    1.220465
     7  C    0.553185
     8  O   -0.854010
     9  O   -0.503590
    10  H    0.268717
    11  H    0.268934
    12  H    0.381571
    13  H    0.643515
    14  H    0.393396
    15  H    0.289425
 Sum of Mulliken charges =   0.00000

 Dipole moment (field-independent basis, Debye):
    X=              5.2276    Y=              3.8410    Z=              0.0002  Tot=              6.4870
 Quadrupole moment (field-independent basis, Debye-Ang):
   XX=            -40.8819   YY=            -54.2030   ZZ=            -52.8100
   XY=             -6.7365   XZ=              0.0018   YZ=              0.0013

  Exact polarizability:     109.380       2.756      81.649       0.000       0.002      50.847
 Approx polarizability:     119.986       6.374     107.852       0.004       0.005      66.497

 Summary of Natural Population Analysis:

                                       Natural Population
                Natural  -----------------------------------------------
    Atom  No    Charge         Core      Valence    Rydberg      Total
 -----------------------------------------------------------------------
      C    1   -0.36942      1.99942     4.35615    0.01385     6.36942
      N    2   -0.37568      1.99942     5.35030    0.02596     7.37568
      C    3    0.19589      1.99940     3.77769    0.02701     5.80411
      N    4   -0.42149      1.99948     5.38561    0.03640     7.42149
      C    5   -0.02097      1.99914     4.00438    0.01745     6.02097
      C    6   -0.04939      1.99903     4.01644    0.03392     6.04939
      C    7    0.78676      1.99937     3.17945    0.03442     5.21324
      O    8   -0.57830      1.99977     6.54588    0.03265     8.57830
      O    9   -0.71207      1.99978     6.68800    0.02429     8.71207
      H   10    0.20813      0.00000     0.78978    0.00208     0.79187
      H   11    0.20815      0.00000     0.78977    0.00208     0.79185
      H   12    0.21184      0.00000     0.78598    0.00218     0.78816
      H   13    0.19366      0.00000     0.80266    0.00368     0.80634
      H   14    0.22765      0.00000     0.76856    0.00379     0.77235
      H   15    0.49525      0.00000     0.50127    0.00348     0.50475
 =======================================================================
   * Total *    0.00000     17.99481    47.74193    0.26326    66.00000

                      1                      2                      3
                      A                      A                      A
 Frequencies --     41.6041                76.1570               145.6203
 Red. masses --      1.1567                 5.0759                 3.6202
 Frc consts  --      0.0012                 0.0173                 0.0452
 IR Inten    --      0.0674                 0.3559                 1.4409

                      4                      5                      6
                      A                      A                      A
 Frequencies --    166.7883               263.9816               345.1851
 Red. masses --      5.2447                 4.3114                 3.4153
 Frc consts  --      0.0860                 0.1770                 0.2398
 IR Inten    --      1.6120                 0.6109                 0.2977

                      7                      8                      9
                      A                      A                      A
 Frequencies --    411.2357               525.3965               557.8776
 Red. masses --      7.7036                 6.0689                 1.2479
 Frc consts  --      0.7676                 0.9870                 0.2288
 IR Inten    --      6.4839                 1.6146                82.4581

                     10                     11                     12
                      A                      A                      A
 Frequencies --    647.0628               682.7705               685.2130
 Red. masses --      2.5436                 4.2376                 4.1765
 Frc consts  --      0.6275                 1.1639                 1.1553
 IR Inten    --      0.0249                23.5083                36.2630

                     13                     14                     15
                      A                      A                      A
 Frequencies --    738.4735               797.8600               842.3830
 Red. masses --      4.0980                 2.3012                 2.2549
 Frc consts  --      1.3167                 0.8631                 0.9428
 IR Inten    --     41.3118                40.9110                 3.8916

                     16                     17                     18
                      A                      A                      A
 Frequencies --    880.0729               998.3280              1072.0009
 Red. masses --      1.5641                 5.7509                 3.6481
 Frc consts  --      0.7138                 3.3770                 2.4701
 IR Inten    --     16.2934                14.0359                22.9470

                     19                     20                     21
                      A                      A                      A
 Frequencies --   1085.4062              1144.3729              1151.9412
 Red. masses --      1.4394                 2.8481                 1.3226
 Frc consts  --      0.9991                 2.1976                 1.0340
 IR Inten    --      0.9796               147.8530                 0.1073

                     22                     23                     24
                      A                      A                      A
 Frequencies --   1178.7749              1262.9548              1314.3571
 Red. masses --      1.7353                 1.3074                 2.2216
 Frc consts  --      1.4206                 1.2287                 2.2612
 IR Inten    --    241.3871                11.3983                29.8701

                     25                     26                     27
                      A                      A                      A
 Frequencies --   1397.3449              1408.0957              1455.1617
 Red. masses --      4.5799                 6.6847                 1.5253
 Frc consts  --      5.2688                 7.8091                 1.9030
 IR Inten    --      2.2578                46.5219                22.8970

                     28                     29                     30
                      A                      A                      A
 Frequencies --   1474.8080              1493.4933              1520.8005
 Red. masses --      3.6582                 1.0385                 1.1381
 Frc consts  --      4.6880                 1.3647                 1.5509
 IR Inten    --     29.1024                 9.4000                20.5651

                     31                     32                     33
                      A                      A                      A
 Frequencies --   1563.7623              1600.7857              1874.9541
 Red. masses --      4.4530                 5.0413                10.4397
 Frc consts  --      6.4157                 7.6113                21.6232
 IR Inten    --     40.2629                52.0377               497.3394

                     34                     35                     36
                      A                      A                      A
 Frequencies --   3081.0502              3150.4728              3171.9344
 Red. masses --      1.0329                 1.1062                 1.1040
 Frc consts  --      5.7771                 6.4689                 6.5442
 IR Inten    --     30.4961                 6.5374                 3.8278

                     37                     38                     39
                      A                      A                      A
 Frequencies --   3261.7366              3297.2721              3824.5469
 Red. masses --      1.0976                 1.1003                 1.0646
 Frc consts  --      6.8803                 7.0479                 9.1746
 IR Inten    --      0.6860                 2.7585               117.0888

 - Thermochemistry -
 -------------------
 Temperature   298.150 Kelvin.  Pressure   1.00000 Atm.
 Atom     1 has atomic number  6 and mass  12.00000

 Molecular mass:   126.04293 amu.
 Principal axes and moments of inertia in atomic units:
                           1         2         3
     Eigenvalues --   408.460001686.392272083.49124
           X            1.00000   0.00157   0.00000
           Y           -0.00157   1.00000   0.00001
           Z            0.00000  -0.00001   1.00000
 This molecule is an asymmetric top.
 Rotational symmetry number  1.
 Rotational temperatures (Kelvin)      0.21205     0.05136     0.04157
 Rotational constants (GHZ):           4.41840     1.07018     0.86621
 Zero-point vibrational energy     302607.6 (Joules/Mol)
                                   72.32495 (Kcal/Mol)
 Warning -- explicit consideration of   9 degrees of freedom as
           vibrations may cause significant error
 Vibrational temperatures:     59.86   109.57   209.52   239.97   379.81
          (Kelvin)            496.64   591.68   755.93   802.66   930.98
                              982.35   985.87  1062.50  1147.94  1212.00
                             1266.23  1436.37  1542.37  1561.66  1646.50
                             1657.39  1695.99  1817.11  1891.07  2010.47
                             2025.94  2093.65  2121.92  2148.80  2188.09
                             2249.91  2303.17  2697.64  4432.94  4532.83
                             4563.71  4692.91  4744.04  5502.67

 Zero-point correction=                           0.115257 (Hartree/Particle)
 Thermal correction to Energy=                    0.123407
 Thermal correction to Enthalpy=                  0.124351
 Thermal correction to Gibbs Free Energy=         0.081225
 Sum of electronic and zero-point Energies=           -453.992436
 Sum of electronic and thermal Energies=              -453.984286
 Sum of electronic and thermal Enthalpies=            -453.983342
 Sum of electronic and thermal Free Energies=         -454.026468

                     E (Thermal)             CV                S
                      KCal/Mol        Cal/Mol-Kelvin    Cal/Mol-Kelvin
 Total                   77.439             28.605             90.767
 Electronic               0.000              0.000              0.000
 Translational            0.889              2.981             40.408
 Rotational               0.889              2.981             28.753
 Vibrational             75.662             22.643             21.606
 Vibration     1          0.594              1.981              5.181
 Vibration     2          0.599              1.965              3.988
 Vibration     3          0.617              1.907              2.729
 Vibration     4          0.624              1.883              2.471
 Vibration     5          0.671              1.739              1.635
 Vibration     6          0.724              1.585              1.188
 Vibration     7          0.775              1.446              0.922
 Vibration     8          0.880              1.194              0.598
 Vibration     9          0.913              1.122              0.528

                           ! Non-Optimized Parameters !
 Normal termination of Gaussian 16 at Tue Mar  4 19:42:37 2025.
