 Gaussian 16, Revision C.01,
 Gaussian 16:  ES64L-G16RevC.01  3-Jul-2019

 ------------------------------------
 # opt freq m062x/aug-cc-pvtz pop=nbo
 ------------------------------------

 --
 16
 --
 Symbolic Z-matrix:
 Charge =  0 Multiplicity = 1

 SCF Done:  E(RM062X) =  -454.062583289     A.U. after   14 cycles
 SCF Done:  E(RM062X) =  -454.105519944     A.U. after   12 cycles
 SCF Done:  E(RM062X) =  -454.112211245     A.U. after   12 cycles
 SCF Done:  E(RM062X) =  -454.112706072     A.U. after   10 cycles
 SCF Done:  E(RM062X) =  -454.112785461     A.U. after   10 cycles
 SCF Done:  E(RM062X) =  -454.112793748     A.U. after    9 cycles
 SCF Done:  E(RM062X) =  -454.112794351     A.U. after    8 cycles
 Optimization completed.
    -- Stationary point found.
 Normal termination of Gaussian 16 at Tue Mar  4 18:28:29 2025.

 ----------------------------------------------------------------------
 #N Geom=AllCheck Guess=TCheck SCRF=Check GenChk RM062X/Aug-CC-pVTZ Fre
 q
 ----------------------------------------------------------------------

 Structure from the checkpoint file:  "16.chk"
 --
 16
 --
 Charge =  0 Multiplicity = 1

                         Standard orientation:
 ---------------------------------------------------------------------
 Center     Atomic      Atomic             Coordinates (Angstroms)
 Number     Number       Type             X           Y           Z
 ---------------------------------------------------------------------
      1          6           0       -0.815102    2.052225   -0.000063
      2          7           0       -0.937263    0.604142   -0.000036
      3          6           0        0.073709   -0.332449    0.000223
      4          6           0       -0.554892   -1.555936    0.000143
      5          7           0       -1.900392   -1.396810   -0.000035
      6          6           0       -2.088567   -0.093053   -0.000154
      7          6           0        1.483637    0.022042    0.000584
      8          8           0        1.924022    1.145103   -0.000005
      9          8           0        2.273943   -1.066636   -0.000351
     10          1           0       -0.273807    2.384097   -0.881483
     11          1           0       -1.818761    2.469359   -0.000417
     12          1           0       -0.274386    2.384179    0.881681
     13          1           0       -0.086284   -2.525408    0.000280
     14          1           0       -3.046461    0.402422   -0.000333
     15          1           0        3.186870   -0.750670   -0.000777
 ---------------------------------------------------------------------

 SCF Done:  E(RM062X) =  -454.112794351     A.U. after    1 cycles

 The electronic state is 1-A.
 Alpha  occ. eigenvalues --  -19.68174 -19.62691 -14.82964 -14.74395 -10.69387
 Alpha  occ. eigenvalues --  -10.61105 -10.59334 -10.58597 -10.57406  -1.25111
 Alpha  occ. eigenvalues --   -1.16101  -1.15100  -1.01189  -0.88818  -0.82692
 Alpha  occ. eigenvalues --   -0.76515  -0.70494  -0.65741  -0.63153  -0.58949
 Alpha  occ. eigenvalues --   -0.57787  -0.56500  -0.53958  -0.52271  -0.50162
 Alpha  occ. eigenvalues --   -0.48963  -0.48270  -0.48053  -0.41301  -0.38184
 Alpha  occ. eigenvalues --   -0.35246  -0.35002  -0.30635
 Alpha virt. eigenvalues --   -0.01090  -0.00960  -0.00129   0.01224   0.01332
 Alpha virt. eigenvalues --    0.01947   0.02788   0.04138   0.04399   0.04911
 Alpha virt. eigenvalues --    0.05966   0.06488   0.07120   0.07276   0.08111

 Mulliken charges:
               1
     1  C   -0.889785
     2  N    0.169273
     3  C    0.783051
     4  C   -0.209337
     5  N   -0.814570
     6  C   -0.487781
     7  C    0.509086
     8  O   -0.901797
     9  O   -0.532686
    10  H    0.326398
    11  H    0.290714
    12  H    0.326408
    13  H    0.480895
    14  H    0.667611
    15  H    0.282519
 Sum of Mulliken charges =   0.00000

 Dipole moment (field-independent basis, Debye):
    X=              0.2662    Y=              2.0533    Z=              0.0002  Tot=              2.0705
 Quadrupole moment (field-independent basis, Debye-Ang):
   XX=            -48.8007   YY=            -53.0084   ZZ=            -52.7901
   XY=            -11.7248   XZ=             -0.0008   YZ=             -0.0007

  Exact polarizability:     100.111       3.511      89.874       0.002      -0.001      50.126
 Approx polarizability:     117.929       7.694     114.031       0.002      -0.003      66.236

 Summary of Natural Population Analysis:

                                       Natural Population
                Natural  -----------------------------------------------
    Atom  No    Charge         Core      Valence    Rydberg      Total
 -----------------------------------------------------------------------
      C    1   -0.36483      1.99941     4.35109    0.01432     6.36483
      N    2   -0.34465      1.99936     5.31917    0.02613     7.34465
      C    3   -0.06014      1.99898     4.03273    0.02843     6.06014
      C    4    0.00375      1.99923     3.97366    0.02336     5.99625
      N    5   -0.47434      1.99953     5.43618    0.03864     7.47434
      C    6    0.21854      1.99941     3.75544    0.02661     5.78146
      C    7    0.78456      1.99935     3.18245    0.03363     5.21544
      O    8   -0.61972      1.99977     6.58840    0.03155     8.61972
      O    9   -0.69009      1.99979     6.66418    0.02613     8.69009
      H   10    0.21959      0.00000     0.77825    0.00216     0.78041
      H   11    0.20124      0.00000     0.79643    0.00233     0.79876
      H   12    0.21957      0.00000     0.77827    0.00216     0.78043
      H   13    0.21493      0.00000     0.78138    0.00368     0.78507
      H   14    0.19424      0.00000     0.80209    0.00367     0.80576
      H   15    0.49733      0.00000     0.49957    0.00310     0.50267
 =======================================================================
   * Total *    0.00000     17.99483    47.73928    0.26589    66.00000

                      1                      2                      3
                      A                      A                      A
 Frequencies --     75.0330               177.7206               202.1529
 Red. masses --      7.8245                 3.3045                 5.5497
 Frc consts  --      0.0260                 0.0615                 0.1336
 IR Inten    --      4.0581                 0.0024                 6.6490

                      4                      5                      6
                      A                      A                      A
 Frequencies --    207.7134               245.4958               333.2481
 Red. masses --      1.9665                 1.5690                 3.6509
 Frc consts  --      0.0500                 0.0557                 0.2389
 IR Inten    --      0.6408                 0.8295                 0.8897

                      7                      8                      9
                      A                      A                      A
 Frequencies --    436.7349               526.1811               552.5963
 Red. masses --      8.0267                 4.7697                 1.2043
 Frc consts  --      0.9020                 0.7781                 0.2167
 IR Inten    --      6.0029                11.7101                85.4989

                     10                     11                     12
                      A                      A                      A
 Frequencies --    645.3126               681.3415               704.0595
 Red. masses --      3.4833                 3.0795                 4.8072
 Frc consts  --      0.8546                 0.8423                 1.4040
 IR Inten    --     25.6026                 9.2336                34.0981

                     13                     14                     15
                      A                      A                      A
 Frequencies --    743.8457               803.2989               886.0921
 Red. masses --      4.2041                 6.5443                 1.4445
 Frc consts  --      1.3705                 2.4881                 0.6682
 IR Inten    --     27.8241                34.9274                15.0119

                     16                     17                     18
                      A                      A                      A
 Frequencies --    924.6953               940.3881              1095.5080
 Red. masses --      1.4981                 4.9612                 1.6541
 Frc consts  --      0.7547                 2.5849                 1.1696
 IR Inten    --      4.3228                12.2452                22.6522

                     19                     20                     21
                      A                      A                      A
 Frequencies --   1138.6937              1156.7572              1169.1424
 Red. masses --      4.2132                 1.3251                 1.5948
 Frc consts  --      3.2187                 1.0447                 1.2844
 IR Inten    --    167.1025                 0.0365                94.6507

                     22                     23                     24
                      A                      A                      A
 Frequencies --   1233.2932              1267.7420              1324.8089
 Red. masses --      1.8872                 1.3402                 4.1059
 Frc consts  --      1.6912                 1.2690                 4.2459
 IR Inten    --    150.6555                 6.7895                52.8957

                     25                     26                     27
                      A                      A                      A
 Frequencies --   1381.0053              1423.6810              1455.2591
 Red. masses --      4.3264                 3.9003                 5.4849
 Frc consts  --      4.8614                 4.6577                 6.8438
 IR Inten    --      5.2460                 7.5577               162.6362

                     28                     29                     30
                      A                      A                      A
 Frequencies --   1462.1026              1490.9361              1519.2000
 Red. masses --      1.3325                 1.0375                 1.2149
 Frc consts  --      1.6783                 1.3588                 1.6520
 IR Inten    --     11.1889                10.5025                24.7551

                     31                     32                     33
                      A                      A                      A
 Frequencies --   1547.7353              1609.1468              1827.9403
 Red. masses --      3.4155                 5.3239                 9.8680
 Frc consts  --      4.8205                 8.1222                19.4269
 IR Inten    --     31.9075                76.4658               501.3235

                     34                     35                     36
                      A                      A                      A
 Frequencies --   3093.5082              3172.9905              3178.5948
 Red. masses --      1.0316                 1.1057                 1.1062
 Frc consts  --      5.8165                 6.5591                 6.5852
 IR Inten    --     16.9397                 3.4667                 4.6890

                     37                     38                     39
                      A                      A                      A
 Frequencies --   3263.0390              3278.6028              3821.8604
 Red. masses --      1.0973                 1.0990                 1.0646
 Frc consts  --      6.8839                 6.9603                 9.1615
 IR Inten    --      1.1637                 0.9792               135.0588

 - Thermochemistry -
 -------------------
 Temperature   298.150 Kelvin.  Pressure   1.00000 Atm.
 Atom     1 has atomic number  6 and mass  12.00000

 Molecular mass:   126.04293 amu.
 Principal axes and moments of inertia in atomic units:
                           1         2         3
     Eigenvalues --   636.399241144.489671769.70043
           X            0.99789  -0.06488   0.00000
           Y            0.06488   0.99789   0.00000
           Z            0.00000   0.00000   1.00000
 This molecule is an asymmetric top.
 Rotational symmetry number  1.
 Warning -- assumption of classical behavior for rotation
           may cause significant error
 Rotational temperatures (Kelvin)      0.13610     0.07568     0.04894
 Rotational constants (GHZ):           2.83586     1.57690     1.01980
 Zero-point vibrational energy     305032.5 (Joules/Mol)
                                   72.90452 (Kcal/Mol)
 Warning -- explicit consideration of   9 degrees of freedom as
           vibrations may cause significant error
 Vibrational temperatures:    107.96   255.70   290.85   298.85   353.21
          (Kelvin)            479.47   628.36   757.06   795.06   928.46
                              980.30  1012.98  1070.23  1155.77  1274.89
                             1330.43  1353.01  1576.19  1638.33  1664.32
                             1682.14  1774.43  1824.00  1906.10  1986.96
                             2048.36  2093.79  2103.64  2145.12  2185.79
                             2226.85  2315.20  2630.00  4450.87  4565.23
                             4573.29  4694.79  4717.18  5498.80

 Zero-point correction=                           0.116181 (Hartree/Particle)
 Thermal correction to Energy=                    0.123903
 Thermal correction to Enthalpy=                  0.124847
 Thermal correction to Gibbs Free Energy=         0.083580
 Sum of electronic and zero-point Energies=           -453.996614
 Sum of electronic and thermal Energies=              -453.988891
 Sum of electronic and thermal Enthalpies=            -453.987947
 Sum of electronic and thermal Free Energies=         -454.029214

                     E (Thermal)             CV                S
                      KCal/Mol        Cal/Mol-Kelvin    Cal/Mol-Kelvin
 Total                   77.750             28.156             86.854
 Electronic               0.000              0.000              0.000
 Translational            0.889              2.981             40.408
 Rotational               0.889              2.981             28.646
 Vibrational             75.973             22.194             17.800
 Vibration     1          0.599              1.966              4.017
 Vibration     2          0.628              1.870              2.352
 Vibration     3          0.639              1.837              2.113
 Vibration     4          0.641              1.829              2.064
 Vibration     5          0.660              1.770              1.763
 Vibration     6          0.715              1.609              1.244
 Vibration     7          0.797              1.390              0.837
 Vibration     8          0.881              1.192              0.596
 Vibration     9          0.908              1.134              0.539

 Optimization completed.
    -- Stationary point found.
 Normal termination of Gaussian 16 at Tue Mar  4 18:52:12 2025.
