 Gaussian 16, Revision C.01,
 Gaussian 16:  ES64L-G16RevC.01  3-Jul-2019

 ------------------------------------
 # opt freq m062x/aug-cc-pvtz pop=nbo
 ------------------------------------

 --
 17
 --
 Symbolic Z-matrix:
 Charge =  0 Multiplicity = 1

 SCF Done:  E(RM062X) =  -619.276280341     A.U. after   13 cycles
 SCF Done:  E(RM062X) =  -619.304674873     A.U. after   12 cycles
 SCF Done:  E(RM062X) =  -619.307302720     A.U. after   12 cycles
 SCF Done:  E(RM062X) =  -619.307639682     A.U. after   11 cycles
 SCF Done:  E(RM062X) =  -619.307866299     A.U. after   10 cycles
 SCF Done:  E(RM062X) =  -619.307874099     A.U. after    9 cycles
 SCF Done:  E(RM062X) =  -619.307875192     A.U. after    8 cycles
 SCF Done:  E(RM062X) =  -619.307875166     A.U. after    8 cycles
 Optimization completed.
    -- Stationary point found.
 Normal termination of Gaussian 16 at Tue Mar  4 18:41:27 2025.

 ----------------------------------------------------------------------
 #N Geom=AllCheck Guess=TCheck SCRF=Check GenChk RM062X/Aug-CC-pVTZ Fre
 q
 ----------------------------------------------------------------------

 Structure from the checkpoint file:  "17.chk"
 --
 17
 --
 Charge =  0 Multiplicity = 1

                         Standard orientation:
 ---------------------------------------------------------------------
 Center     Atomic      Atomic             Coordinates (Angstroms)
 Number     Number       Type             X           Y           Z
 ---------------------------------------------------------------------
      1          6           0        0.216195    0.027906    0.000163
      2          6           0       -0.465722   -1.193865   -0.000120
      3          9           0        0.209203   -2.340233   -0.000441
      4          6           0       -1.843155   -1.286664   -0.000257
      5          6           0       -2.595062   -0.124818   -0.000108
      6          6           0       -1.975034    1.112438    0.000144
      7          6           0       -0.595821    1.168905    0.000242
      8          9           0       -0.042523    2.374548    0.000585
      9          6           0        1.700635    0.168936    0.000328
     10          8           0        2.285120    1.215506   -0.001850
     11          8           0        2.347181   -1.007692    0.001359
     12          1           0       -2.295592   -2.266896   -0.000509
     13          1           0       -3.674175   -0.184455   -0.000207
     14          1           0       -2.531327    2.037626    0.000283
     15          1           0        3.290355   -0.794658    0.000703
 ---------------------------------------------------------------------

 SCF Done:  E(RM062X) =  -619.307875166     A.U. after    1 cycles

 The electronic state is 1-A.
 Alpha  occ. eigenvalues --  -25.27592 -25.27288 -19.68053 -19.62575 -10.69679
 Alpha  occ. eigenvalues --  -10.66413 -10.66279 -10.59034 -10.58355 -10.56817
 Alpha  occ. eigenvalues --  -10.56762  -1.39953  -1.39708  -1.25274  -1.15434
 Alpha  occ. eigenvalues --   -1.00501  -0.90262  -0.87804  -0.78233  -0.74327
 Alpha  occ. eigenvalues --   -0.71665  -0.66982  -0.64033  -0.61335  -0.60096
 Alpha  occ. eigenvalues --   -0.58977  -0.58704  -0.58507  -0.56506  -0.54854
 Alpha  occ. eigenvalues --   -0.54675  -0.50596  -0.48469  -0.46968  -0.45521
 Alpha  occ. eigenvalues --   -0.45014  -0.41053  -0.37046  -0.34266  -0.32441
 Alpha virt. eigenvalues --   -0.03762  -0.00939  -0.00025   0.00500   0.00783
 Alpha virt. eigenvalues --    0.01702   0.02823   0.03728   0.03834   0.05165
 Alpha virt. eigenvalues --    0.05820   0.06319   0.06329   0.06558   0.07245

 Mulliken charges:
               1
     1  C    1.114305
     2  C    0.692812
     3  F   -0.512765
     4  C   -0.595065
     5  C    0.009442
     6  C   -0.601185
     7  C    0.324020
     8  F   -0.522767
     9  C    0.301804
    10  O   -0.887526
    11  O   -0.481568
    12  H    0.363001
    13  H    0.143273
    14  H    0.356573
    15  H    0.295646
 Sum of Mulliken charges =   0.00000

 Dipole moment (field-independent basis, Debye):
    X=             -2.6134    Y=             -1.4558    Z=              0.0024  Tot=              2.9915
 Quadrupole moment (field-independent basis, Debye-Ang):
   XX=            -49.0721   YY=            -66.4812   ZZ=            -61.6437
   XY=             -4.5294   XZ=              0.0079   YZ=              0.0073

  Exact polarizability:     116.060       2.053      98.110      -0.002      -0.006      51.435
 Approx polarizability:     136.542       3.942     133.997      -0.005      -0.013      69.095

 Summary of Natural Population Analysis:

                                       Natural Population
                Natural  -----------------------------------------------
    Atom  No    Charge         Core      Valence    Rydberg      Total
 -----------------------------------------------------------------------
      C    1   -0.30472      1.99880     4.28190    0.02402     6.30472
      C    2    0.46980      1.99862     3.50255    0.02903     5.53020
      F    3   -0.31701      1.99993     7.30775    0.00933     9.31701
      C    4   -0.29821      1.99915     4.28089    0.01817     6.29821
      C    5   -0.14194      1.99930     4.12545    0.01718     6.14194
      C    6   -0.29758      1.99915     4.28036    0.01807     6.29758
      C    7    0.47963      1.99863     3.49282    0.02892     5.52037
      F    8   -0.30995      1.99993     7.30048    0.00954     9.30995
      C    9    0.80290      1.99945     3.16379    0.03386     5.19710
      O   10   -0.57948      1.99977     6.54645    0.03326     8.57948
      O   11   -0.68469      1.99978     6.65821    0.02669     8.68469
      H   12    0.23245      0.00000     0.76441    0.00314     0.76755
      H   13    0.21795      0.00000     0.77937    0.00268     0.78205
      H   14    0.23298      0.00000     0.76392    0.00309     0.76702
      H   15    0.49787      0.00000     0.49887    0.00325     0.50213
 =======================================================================
   * Total *    0.00000     21.99252    57.74724    0.26024    80.00000

 ******    1 imaginary frequencies (negative Signs) ******

                      1                      2                      3
                      A                      A                      A
 Frequencies --    -52.4060                92.4057               236.1818
 Red. masses --     11.8845                 8.3635                 4.7581
 Frc consts  --      0.0192                 0.0421                 0.1564
 IR Inten    --      1.7312                 1.4622                 0.0014

                      4                      5                      6
                      A                      A                      A
 Frequencies --    237.2607               265.8532               337.5639
 Red. masses --      9.4754                 6.9202                13.8689
 Frc consts  --      0.3143                 0.2882                 0.9311
 IR Inten    --      2.4371                 1.0310                 1.5819

                      7                      8                      9
                      A                      A                      A
 Frequencies --    363.6381               406.5981               482.9684
 Red. masses --     10.7125                12.7600                 3.1883
 Frc consts  --      0.8346                 1.2429                 0.4382
 IR Inten    --      0.7505                 2.2513                 1.1747

                     10                     11                     12
                      A                      A                      A
 Frequencies --    530.5635               576.8771               595.3459
 Red. masses --      8.1032                 6.3401                 6.5546
 Frc consts  --      1.3439                 1.2431                 1.3688
 IR Inten    --      4.5435                40.6487                10.7287

                     13                     14                     15
                      A                      A                      A
 Frequencies --    598.8970               632.3283               712.1547
 Red. masses --      1.2778                 4.4582                 2.7437
 Frc consts  --      0.2700                 1.0503                 0.8199
 IR Inten    --     71.1907                 0.2875                56.1621

                     16                     17                     18
                      A                      A                      A
 Frequencies --    722.1693               806.3240               812.3159
 Red. masses --      4.8667                 1.8844                 5.6091
 Frc consts  --      1.4954                 0.7218                 2.1807
 IR Inten    --     30.9490                 7.8579                11.8182

                     19                     20                     21
                      A                      A                      A
 Frequencies --    847.2971               915.9639              1009.8362
 Red. masses --      4.4539                 1.4456                 1.3264
 Frc consts  --      1.8839                 0.7146                 0.7969
 IR Inten    --     63.3191                 0.0051                 0.8042

                     22                     23                     24
                      A                      A                      A
 Frequencies --   1060.5659              1090.9778              1141.2648
 Red. masses --      4.3160                 2.2857                 2.8950
 Frc consts  --      2.8603                 1.6029                 2.2217
 IR Inten    --    135.0414                 4.8988                51.0440

                     25                     26                     27
                      A                      A                      A
 Frequencies --   1176.2188              1219.9257              1271.3992
 Red. masses --      1.2455                 1.9451                 2.1619
 Frc consts  --      1.0153                 1.7056                 2.0590
 IR Inten    --      0.1157               193.8915                54.9400

                     28                     29                     30
                      A                      A                      A
 Frequencies --   1326.8072              1346.0055              1403.4193
 Red. masses --      4.5227                 4.1351                 3.6725
 Frc consts  --      4.6910                 4.4140                 4.2618
 IR Inten    --      4.5839                 2.0535               149.9449

                     31                     32                     33
                      A                      A                      A
 Frequencies --   1517.0882              1524.6591              1654.7373
 Red. masses --      4.2062                 3.5731                 7.3704
 Frc consts  --      5.7037                 4.8938                11.8904
 IR Inten    --     16.9207               162.0213                84.4651

                     34                     35                     36
                      A                      A                      A
 Frequencies --   1693.7480              1851.8025              3219.3050
 Red. masses --      8.2696                10.5311                 1.0888
 Frc consts  --     13.9776                21.2772                 6.6488
 IR Inten    --    163.8043               463.0057                 2.5067

                     37                     38                     39
                      A                      A                      A
 Frequencies --   3239.2543              3244.3694              3808.1462
 Red. masses --      1.0933                 1.0968                 1.0644
 Frc consts  --      6.7588                 6.8019                 9.0944
 IR Inten    --      0.0068                 0.1180               125.3366

 - Thermochemistry -
 -------------------
 Temperature   298.150 Kelvin.  Pressure   1.00000 Atm.
 Atom     1 has atomic number  6 and mass  12.00000

 Molecular mass:   158.01794 amu.
 Principal axes and moments of inertia in atomic units:
                           1         2         3
     Eigenvalues --  1177.759711496.808712674.56771
           X            0.99990  -0.01391   0.00001
           Y            0.01391   0.99990   0.00000
           Z           -0.00001   0.00000   1.00000
 This molecule is an asymmetric top.
 Rotational symmetry number  1.
 Warning -- assumption of classical behavior for rotation
           may cause significant error
 Rotational temperatures (Kelvin)      0.07354     0.05787     0.03238
 Rotational constants (GHZ):           1.53235     1.20573     0.67478
    1 imaginary frequencies ignored.
 Zero-point vibrational energy     263012.4 (Joules/Mol)
                                   62.86147 (Kcal/Mol)
 Warning -- explicit consideration of  12 degrees of freedom as
           vibrations may cause significant error
 Vibrational temperatures:    132.95   339.81   341.37   382.50   485.68
          (Kelvin)            523.19   585.00   694.88   763.36   830.00
                              856.57   861.68   909.78  1024.63  1039.04
                             1160.12  1168.74  1219.07  1317.87  1452.93
                             1525.92  1569.67  1642.03  1692.32  1755.20
                             1829.26  1908.98  1936.60  2019.21  2182.75
                             2193.64  2380.80  2436.93  2664.33  4631.86
                             4660.56  4667.92  5479.07

 Zero-point correction=                           0.100176 (Hartree/Particle)
 Thermal correction to Energy=                    0.108016
 Thermal correction to Enthalpy=                  0.108961
 Thermal correction to Gibbs Free Energy=         0.067136
 Sum of electronic and zero-point Energies=           -619.207699
 Sum of electronic and thermal Energies=              -619.199859
 Sum of electronic and thermal Enthalpies=            -619.198915
 Sum of electronic and thermal Free Energies=         -619.240739

                     E (Thermal)             CV                S
                      KCal/Mol        Cal/Mol-Kelvin    Cal/Mol-Kelvin
 Total                   67.781             30.735             88.028
 Electronic               0.000              0.000              0.000
 Translational            0.889              2.981             41.082
 Rotational               0.889              2.981             29.934
 Vibrational             66.004             24.773             17.012
 Vibration     1          0.602              1.955              3.608
 Vibration     2          0.655              1.785              1.831
 Vibration     3          0.656              1.784              1.823
 Vibration     4          0.672              1.736              1.623
 Vibration     5          0.718              1.600              1.224
 Vibration     6          0.737              1.547              1.107
 Vibration     7          0.771              1.456              0.939
 Vibration     8          0.839              1.288              0.702
 Vibration     9          0.886              1.182              0.586
 Vibration    10          0.933              1.081              0.491
 Vibration    11          0.953              1.042              0.458
 Vibration    12          0.957              1.034              0.452

                           ! Non-Optimized Parameters !
 Normal termination of Gaussian 16 at Tue Mar  4 19:11:21 2025.
