 Gaussian 16, Revision C.01,
 Gaussian 16:  ES64L-G16RevC.01  3-Jul-2019

 ------------------------------------
 # opt freq m062x/aug-cc-pvtz pop=nbo
 ------------------------------------

 --
 18
 --
 Symbolic Z-matrix:
 Charge =  0 Multiplicity = 1

 SCF Done:  E(RM062X) =  -1339.98367842     A.U. after   14 cycles
 SCF Done:  E(RM062X) =  -1340.01237228     A.U. after   13 cycles
 SCF Done:  E(RM062X) =  -1340.01576215     A.U. after   12 cycles
 SCF Done:  E(RM062X) =  -1340.01635491     A.U. after   12 cycles
 SCF Done:  E(RM062X) =  -1340.01743001     A.U. after   12 cycles
 SCF Done:  E(RM062X) =  -1340.01819361     A.U. after   15 cycles
 SCF Done:  E(RM062X) =  -1340.02103685     A.U. after   12 cycles
 SCF Done:  E(RM062X) =  -1340.02265536     A.U. after   12 cycles
 SCF Done:  E(RM062X) =  -1340.02397899     A.U. after   13 cycles
 SCF Done:  E(RM062X) =  -1340.02470297     A.U. after   12 cycles
 SCF Done:  E(RM062X) =  -1340.02521579     A.U. after   13 cycles
 SCF Done:  E(RM062X) =  -1340.02479823     A.U. after   15 cycles
 SCF Done:  E(RM062X) =  -1340.02534765     A.U. after   12 cycles
 SCF Done:  E(RM062X) =  -1340.02542461     A.U. after   12 cycles
 SCF Done:  E(RM062X) =  -1340.02543433     A.U. after   10 cycles
 SCF Done:  E(RM062X) =  -1340.02543987     A.U. after   11 cycles
 SCF Done:  E(RM062X) =  -1340.02543999     A.U. after    8 cycles
 Optimization completed.
    -- Stationary point found.

 1\1\GINC-AE32\FOpt\RM062X\Aug-CC-pVTZ\C7H4Cl2O2\DHUANG\04-Mar-2025\0\\
 # opt freq m062x/aug-cc-pvtz pop=nbo\\18\\0,1\C,1.0467138325,1.5974537
 9,1.0278148294\C,1.5191365065,1.4591845688,2.3259234019\Cl,2.844280515
 ,0.386274104,2.6341965001\C,0.9533267496,2.1611354104,3.3768529853\C,-
 0.1045097307,3.0191527604,3.1222317657\C,-0.593570504,3.1789855654,1.8
 356701176\C,-0.0117303842,2.4666159308,0.8005804861\Cl,-0.6144817543,2
 .6626175779,-0.8119832997\C,1.6406353268,0.7992597027,-0.0953592518\O,
 1.258653683,-0.2832619542,-0.4259729208\O,2.6524163604,1.4502401333,-0

 Normal termination of Gaussian 16 at Tue Mar  4 19:40:16 2025.

 ----------------------------------------------------------------------
 #N Geom=AllCheck Guess=TCheck SCRF=Check GenChk RM062X/Aug-CC-pVTZ Fre
 q
 ----------------------------------------------------------------------

 Structure from the checkpoint file:  "18.chk"
 --
 18
 --
 Charge =  0 Multiplicity = 1

                         Standard orientation:
 ---------------------------------------------------------------------
 Center     Atomic      Atomic             Coordinates (Angstroms)
 Number     Number       Type             X           Y           Z
 ---------------------------------------------------------------------
      1          6           0       -0.000017   -0.092118   -0.025476
      2          6           0       -1.192133    0.619176   -0.007868
      3         17           0       -2.693548   -0.245547   -0.021398
      4          6           0       -1.204460    2.003500    0.020819
      5          6           0        0.000197    2.688097    0.033954
      6          6           0        1.204721    2.003328    0.020545
      7          6           0        1.192221    0.618970   -0.008023
      8         17           0        2.693560   -0.245833   -0.021606
      9          6           0       -0.000199   -1.590753   -0.099426
     10          8           0       -0.000950   -2.213413   -1.118918
     11          8           0        0.000548   -2.144783    1.119034
     12          1           0       -2.148359    2.527616    0.032801
     13          1           0        0.000261    3.768734    0.055443
     14          1           0        2.148714    2.527286    0.032137
     15          1           0        0.000417   -3.105807    1.002606
 ---------------------------------------------------------------------

 SCF Done:  E(RM062X) =  -1340.02543999     A.U. after    1 cycles

 The electronic state is 1-A.
 Alpha  occ. eigenvalues -- -102.69661-102.69660 -19.68995 -19.63678 -10.70078
 Alpha  occ. eigenvalues --  -10.63403 -10.63401 -10.59431 -10.57799 -10.57524
 Alpha  occ. eigenvalues --  -10.57511  -9.83348  -9.83347  -7.55589  -7.55588
 Alpha  occ. eigenvalues --   -7.55030  -7.55029  -7.55012  -7.55011  -1.25947
 Alpha  occ. eigenvalues --   -1.16459  -1.03803  -0.99414  -0.94442  -0.88927
 Alpha  occ. eigenvalues --   -0.84765  -0.77550  -0.70852  -0.70327  -0.63200
 Alpha  occ. eigenvalues --   -0.59559  -0.59432  -0.58153  -0.54081  -0.53523
 Alpha  occ. eigenvalues --   -0.51987  -0.50728  -0.50324  -0.46428  -0.45249
 Alpha  occ. eigenvalues --   -0.45041  -0.41485  -0.40435  -0.40144  -0.39194
 Alpha  occ. eigenvalues --   -0.38069  -0.33235  -0.31809
 Alpha virt. eigenvalues --   -0.01563  -0.01427  -0.00924  -0.00123   0.00609
 Alpha virt. eigenvalues --    0.01472   0.02322   0.03127   0.03292   0.03327
 Alpha virt. eigenvalues --    0.03994   0.04953   0.06323   0.06435   0.06607

 Mulliken charges:
               1
     1  C    1.187314
     2  C    0.487527
     3  Cl  -0.264102
     4  C   -0.781865
     5  C    0.099219
     6  C   -0.782053
     7  C    0.487126
     8  Cl  -0.264114
     9  C    0.077148
    10  O   -0.785711
    11  O   -0.494627
    12  H    0.248202
    13  H    0.262365
    14  H    0.248329
    15  H    0.275241
 Sum of Mulliken charges =   0.00000

 Dipole moment (field-independent basis, Debye):
    X=              0.0013    Y=              2.1956    Z=              1.4678  Tot=              2.6411
 Quadrupole moment (field-independent basis, Debye-Ang):
   XX=            -75.3529   YY=            -63.4485   ZZ=            -81.8167
   XY=             -0.0030   XZ=             -0.0033   YZ=             -5.2894

  Exact polarizability:     137.982       0.000     130.293       0.001       1.193      75.641
 Approx polarizability:     172.766       0.001     163.387       0.004       3.450     106.845

 Summary of Natural Population Analysis:

                                       Natural Population
                Natural  -----------------------------------------------
    Atom  No    Charge         Core      Valence    Rydberg      Total
 -----------------------------------------------------------------------
      C    1   -0.19635      1.99869     4.16312    0.03454     6.19635
      C    2    0.00298      1.99861     3.96964    0.02878     5.99702
     Cl    3    0.03104      9.99965     6.95358    0.01573    16.96896
      C    4   -0.22883      1.99912     4.20798    0.02172     6.22883
      C    5   -0.16658      1.99926     4.15118    0.01614     6.16658
      C    6   -0.22882      1.99912     4.20798    0.02172     6.22882
      C    7    0.00297      1.99861     3.96965    0.02878     5.99703
     Cl    8    0.03105      9.99965     6.95356    0.01573    16.96895
      C    9    0.82347      1.99942     3.13848    0.03863     5.17653
      O   10   -0.56590      1.99976     6.53374    0.03241     8.56590
      O   11   -0.68328      1.99977     6.65683    0.02668     8.68328
      H   12    0.23030      0.00000     0.76661    0.00308     0.76970
      H   13    0.21958      0.00000     0.77769    0.00273     0.78042
      H   14    0.23030      0.00000     0.76662    0.00308     0.76970
      H   15    0.49808      0.00000     0.49891    0.00301     0.50192
 =======================================================================
   * Total *    0.00000     37.99165    57.71558    0.29277    96.00000

                      1                      2                      3
                      A                      A                      A
 Frequencies --     30.5026                76.8996               135.4531
 Red. masses --     10.6583                10.8675                10.5064
 Frc consts  --      0.0058                 0.0379                 0.1136
 IR Inten    --      2.2423                 0.6748                 0.1288

                      4                      5                      6
                      A                      A                      A
 Frequencies --    164.5183               188.7107               203.4033
 Red. masses --      8.5111                20.7186                 4.6344
 Frc consts  --      0.1357                 0.4347                 0.1130
 IR Inten    --      3.0004                 0.0169                 0.0027

                      7                      8                      9
                      A                      A                      A
 Frequencies --    325.9535               384.5013               393.7903
 Red. masses --     15.6494                 5.3264                 5.6376
 Frc consts  --      0.9796                 0.4640                 0.5151
 IR Inten    --      0.6747                 2.0576                 0.3628

                     10                     11                     12
                      A                      A                      A
 Frequencies --    446.3015               477.4187               543.3389
 Red. masses --      8.1758                 9.4963                 5.1891
 Frc consts  --      0.9595                 1.2753                 0.9026
 IR Inten    --      0.6102                18.8390                 0.2697

                     13                     14                     15
                      A                      A                      A
 Frequencies --    586.6543               602.9916               664.7799
 Red. masses --      3.8805                 1.2474                 4.8856
 Frc consts  --      0.7869                 0.2672                 1.2721
 IR Inten    --      0.1606                72.8080                35.4420

                     16                     17                     18
                      A                      A                      A
 Frequencies --    771.6774               777.5386               794.8469
 Red. masses --      2.5765                 6.2224                 4.5452
 Frc consts  --      0.9040                 2.2164                 1.6919
 IR Inten    --     28.1872                76.0556                11.0268

                     19                     20                     21
                      A                      A                      A
 Frequencies --    814.4357               826.4682               933.0238
 Red. masses --      1.9247                10.1944                 1.3709
 Frc consts  --      0.7522                 4.1026                 0.7031
 IR Inten    --     25.1461                32.4803                 0.0001

                     22                     23                     24
                      A                      A                      A
 Frequencies --   1016.0720              1080.1005              1118.3349
 Red. masses --      1.3315                 3.9128                 3.2195
 Frc consts  --      0.8099                 2.6895                 2.3724
 IR Inten    --      0.4732                 8.3490                 9.7128

                     25                     26                     27
                      A                      A                      A
 Frequencies --   1179.3928              1180.0714              1228.4806
 Red. masses --      3.5269                 1.2025                 1.9314
 Frc consts  --      2.8904                 0.9866                 1.7174
 IR Inten    --    152.3499                 2.0867                24.5643

                     28                     29                     30
                      A                      A                      A
 Frequencies --   1232.6371              1298.7995              1382.2359
 Red. masses --      1.7212                 5.5483                 2.8623
 Frc consts  --      1.5409                 5.5143                 3.2220
 IR Inten    --    121.0495                 1.7128               104.2986

                     31                     32                     33
                      A                      A                      A
 Frequencies --   1481.1655              1498.8211              1636.5445
 Red. masses --      2.4249                 3.8497                 7.0901
 Frc consts  --      3.1344                 5.0953                11.1881
 IR Inten    --     74.2833                 8.7848                50.1515

                     34                     35                     36
                      A                      A                      A
 Frequencies --   1660.2400              1879.2333              3217.7735
 Red. masses --      7.8618                11.0447                 1.0885
 Frc consts  --     12.7677                22.9809                 6.6403
 IR Inten    --     31.8286               329.5490                 2.6300

                     37                     38                     39
                      A                      A                      A
 Frequencies --   3236.9974              3241.5744              3793.0264
 Red. masses --      1.0928                 1.0972                 1.0641
 Frc consts  --      6.7463                 6.7926                 9.0197
 IR Inten    --      0.1187                 0.1490               117.7405

 - Thermochemistry -
 -------------------
 Temperature   298.150 Kelvin.  Pressure   1.00000 Atm.
 Atom     1 has atomic number  6 and mass  12.00000

 Molecular mass:   189.95883 amu.
 Principal axes and moments of inertia in atomic units:
                           1         2         3
     Eigenvalues --  1631.372862238.649773575.54560
           X            1.00000   0.00000   0.00000
           Y            0.00000   0.99997  -0.00719
           Z            0.00000   0.00719   0.99997
 This molecule is an asymmetric top.
 Rotational symmetry number  1.
 Warning -- assumption of classical behavior for rotation
           may cause significant error
 Rotational temperatures (Kelvin)      0.05309     0.03869     0.02422
 Rotational constants (GHZ):           1.10627     0.80617     0.50475
 Zero-point vibrational energy     254234.6 (Joules/Mol)
                                   60.76353 (Kcal/Mol)
 Warning -- explicit consideration of  14 degrees of freedom as
           vibrations may cause significant error
 Vibrational temperatures:     43.89   110.64   194.89   236.71   271.51
          (Kelvin)            292.65   468.97   553.21   566.58   642.13
                              686.90   781.74   844.06   867.57   956.47
                             1110.27  1118.70  1143.61  1171.79  1189.10
                             1342.41  1461.90  1554.02  1609.03  1696.88
                             1697.86  1767.51  1773.49  1868.68  1988.73
                             2131.07  2156.47  2354.62  2388.72  2703.80
                             4629.66  4657.32  4663.90  5457.32

 Zero-point correction=                           0.096833 (Hartree/Particle)
 Thermal correction to Energy=                    0.106559
 Thermal correction to Enthalpy=                  0.107504
 Thermal correction to Gibbs Free Energy=         0.059837
 Sum of electronic and zero-point Energies=          -1339.928607
 Sum of electronic and thermal Energies=             -1339.918881
 Sum of electronic and thermal Enthalpies=           -1339.917936
 Sum of electronic and thermal Free Energies=        -1339.965603

                     E (Thermal)             CV                S
                      KCal/Mol        Cal/Mol-Kelvin    Cal/Mol-Kelvin
 Total                   66.867             34.814            100.324
 Electronic               0.000              0.000              0.000
 Translational            0.889              2.981             41.631
 Rotational               0.889              2.981             30.947
 Vibrational             65.090             28.853             27.746
 Vibration     1          0.594              1.984              5.796
 Vibration     2          0.599              1.965              3.968
 Vibration     3          0.613              1.918              2.867
 Vibration     4          0.623              1.886              2.497
 Vibration     5          0.633              1.855              2.240
 Vibration     6          0.639              1.835              2.102
 Vibration     7          0.710              1.624              1.280
 Vibration     8          0.753              1.503              1.021
 Vibration     9          0.761              1.483              0.986
 Vibration    10          0.806              1.369              0.807
 Vibration    11          0.834              1.300              0.717
 Vibration    12          0.898              1.154              0.558
 Vibration    13          0.944              1.060              0.473
 Vibration    14          0.961              1.025              0.445

 Optimization completed.
    -- Stationary point found.

 1\1\GINC-AE32\Freq\RM062X\Aug-CC-pVTZ\C7H4Cl2O2\DHUANG\04-Mar-2025\0\\
 #N Geom=AllCheck Guess=TCheck SCRF=Check GenChk RM062X/Aug-CC-pVTZ Fre
 q\\18\\0,1\C,1.0467138325,1.59745379,1.0278148294\C,1.5191365065,1.459
 1845688,2.3259234019\Cl,2.844280515,0.386274104,2.6341965001\C,0.95332
 67496,2.1611354104,3.3768529853\C,-0.1045097307,3.0191527604,3.1222317
 657\C,-0.593570504,3.1789855654,1.8356701176\C,-0.0117303842,2.4666159
 308,0.8005804861\Cl,-0.6144817543,2.6626175779,-0.8119832997\C,1.64063
 53268,0.7992597027,-0.0953592518\O,1.258653683,-0.2832619542,-0.425972

 Normal termination of Gaussian 16 at Tue Mar  4 20:14:46 2025.
