 Gaussian 16, Revision C.01,
 Gaussian 16:  ES64L-G16RevC.01  3-Jul-2019

 ------------------------------------
 # opt freq m062x/aug-cc-pvtz pop=nbo
 ------------------------------------

 --
 19
 --
 Symbolic Z-matrix:
 Charge =  0 Multiplicity = 1

 SCF Done:  E(RM062X) =  -649.814667603     A.U. after   14 cycles
 SCF Done:  E(RM062X) =  -649.847612365     A.U. after   12 cycles
 SCF Done:  E(RM062X) =  -649.851917016     A.U. after   12 cycles
 SCF Done:  E(RM062X) =  -649.852057061     A.U. after   12 cycles
 SCF Done:  E(RM062X) =  -649.853490455     A.U. after   12 cycles
 SCF Done:  E(RM062X) =  -649.854102030     A.U. after   11 cycles
 SCF Done:  E(RM062X) =  -649.856087138     A.U. after   13 cycles
 SCF Done:  E(RM062X) =  -649.857505928     A.U. after   14 cycles
 SCF Done:  E(RM062X) =  -649.858794690     A.U. after   11 cycles
 SCF Done:  E(RM062X) =  -649.859432694     A.U. after   12 cycles
 SCF Done:  E(RM062X) =  -649.859703193     A.U. after   10 cycles
 SCF Done:  E(RM062X) =  -649.859703571     A.U. after    8 cycles
 SCF Done:  E(RM062X) =  -649.859705222     A.U. after   11 cycles
 SCF Done:  E(RM062X) =  -649.859705569     A.U. after   10 cycles
 SCF Done:  E(RM062X) =  -649.859704527     A.U. after   10 cycles
 SCF Done:  E(RM062X) =  -649.859705856     A.U. after   11 cycles
 SCF Done:  E(RM062X) =  -649.859705980     A.U. after    9 cycles
 SCF Done:  E(RM062X) =  -649.859706019     A.U. after    8 cycles
 SCF Done:  E(RM062X) =  -649.859706021     A.U. after    7 cycles
 Optimization completed.
    -- Stationary point found.
 Normal termination of Gaussian 16 at Tue Mar  4 23:40:23 2025.

 ----------------------------------------------------------------------
 #N Geom=AllCheck Guess=TCheck SCRF=Check GenChk RM062X/Aug-CC-pVTZ Fre
 q
 ----------------------------------------------------------------------

 Structure from the checkpoint file:  "19.chk"
 --
 19
 --
 Charge =  0 Multiplicity = 1

                         Standard orientation:
 ---------------------------------------------------------------------
 Center     Atomic      Atomic             Coordinates (Angstroms)
 Number     Number       Type             X           Y           Z
 ---------------------------------------------------------------------
      1          6           0       -0.000007    0.243556   -0.025929
      2          6           0        1.205482   -0.448318   -0.006772
      3          8           0        2.317290    0.321995   -0.018784
      4          6           0        3.570706   -0.327391   -0.022699
      5          6           0        1.212108   -1.841327    0.023650
      6          6           0       -0.000061   -2.512709    0.037458
      7          6           0       -1.212196   -1.841283    0.023674
      8          6           0       -1.205518   -0.448266   -0.006750
      9          8           0       -2.317304    0.322080   -0.018725
     10          6           0       -3.570741   -0.327263   -0.022681
     11          6           0        0.000044    1.738007   -0.103702
     12          8           0       -0.000022    2.371209   -1.119097
     13          8           0        0.000186    2.306265    1.113547
     14          1           0        4.317894    0.459479   -0.044257
     15          1           0        3.702474   -0.931490    0.877310
     16          1           0        3.681296   -0.959622   -0.905941
     17          1           0        2.137273   -2.394931    0.036968
     18          1           0       -0.000077   -3.593973    0.060556
     19          1           0       -2.137387   -2.394842    0.037010
     20          1           0       -4.317901    0.459633   -0.044256
     21          1           0       -3.681330   -0.959485   -0.905930
     22          1           0       -3.702559   -0.931362    0.877321
     23          1           0        0.000217    3.264179    0.978201
 ---------------------------------------------------------------------

 SCF Done:  E(RM062X) =  -649.859706021     A.U. after    1 cycles

 The electronic state is 1-A.
 Alpha  occ. eigenvalues --  -19.66770 -19.66521 -19.66521 -19.61392 -10.67787
 Alpha  occ. eigenvalues --  -10.61756 -10.61754 -10.59597 -10.59597 -10.55578
 Alpha  occ. eigenvalues --  -10.55246 -10.54322 -10.54319  -1.23708  -1.20680
 Alpha  occ. eigenvalues --   -1.20565  -1.14034  -0.97306  -0.88406  -0.86459
 Alpha  occ. eigenvalues --   -0.80989  -0.79793  -0.75062  -0.68610  -0.67968
 Alpha  occ. eigenvalues --   -0.63207  -0.59928  -0.59140  -0.57529  -0.57069
 Alpha  occ. eigenvalues --   -0.56223  -0.55771  -0.53623  -0.52891  -0.52040
 Alpha  occ. eigenvalues --   -0.48456  -0.47892  -0.46746  -0.46234  -0.44576
 Alpha  occ. eigenvalues --   -0.42592  -0.42019  -0.40641  -0.39329  -0.38645
 Alpha  occ. eigenvalues --   -0.35781  -0.29466  -0.28486
 Alpha virt. eigenvalues --   -0.00877  -0.00298   0.00220   0.01086   0.01269
 Alpha virt. eigenvalues --    0.01649   0.01747   0.02333   0.03006   0.03437
 Alpha virt. eigenvalues --    0.03649   0.03941   0.04774   0.04924   0.05281

 Mulliken charges:
               1
     1  C    1.609127
     2  C    0.417898
     3  O   -0.653640
     4  C   -1.085998
     5  C   -0.043574
     6  C   -0.321550
     7  C   -0.043546
     8  C    0.417893
     9  O   -0.653652
    10  C   -1.086006
    11  C    0.594837
    12  O   -0.792259
    13  O   -0.515811
    14  H    0.225109
    15  H    0.414277
    16  H    0.406547
    17  H   -0.142149
    18  H    0.089849
    19  H   -0.142158
    20  H    0.225113
    21  H    0.406545
    22  H    0.414274
    23  H    0.258875
 Sum of Mulliken charges =   0.00000

 Dipole moment (field-independent basis, Debye):
    X=              0.0001    Y=             -2.6477    Z=              1.4022  Tot=              2.9961
 Quadrupole moment (field-independent basis, Debye-Ang):
   XX=            -56.3701   YY=            -70.1425   ZZ=            -82.1997
   XY=              0.0004   XZ=             -0.0001   YZ=              5.4488

  Exact polarizability:     152.355       0.000     131.789       0.000      -1.239      84.758
 Approx polarizability:     170.103       0.000     163.631       0.001      -3.304     114.414

 Summary of Natural Population Analysis:

                                       Natural Population
                Natural  -----------------------------------------------
    Atom  No    Charge         Core      Valence    Rydberg      Total
 -----------------------------------------------------------------------
      C    1   -0.23183      1.99880     4.20235    0.03068     6.23183
      C    2    0.36432      1.99885     3.61298    0.02385     5.63568
      O    3   -0.52420      1.99974     6.49511    0.02935     8.52420
      C    4   -0.21484      1.99937     4.20234    0.01313     6.21484
      C    5   -0.32539      1.99915     4.31080    0.01544     6.32539
      C    6   -0.15233      1.99931     4.13494    0.01807     6.15233
      C    7   -0.32539      1.99915     4.31079    0.01544     6.32539
      C    8    0.36431      1.99885     3.61298    0.02385     5.63569
      O    9   -0.52419      1.99974     6.49511    0.02935     8.52419
      C   10   -0.21484      1.99937     4.20234    0.01313     6.21484
      C   11    0.83503      1.99945     3.12769    0.03783     5.16497
      O   12   -0.58128      1.99976     6.54974    0.03178     8.58128
      O   13   -0.68764      1.99978     6.66180    0.02606     8.68764
      H   14    0.19476      0.00000     0.80217    0.00307     0.80524
      H   15    0.17217      0.00000     0.82521    0.00261     0.82783
      H   16    0.17359      0.00000     0.82380    0.00261     0.82641
      H   17    0.21841      0.00000     0.77803    0.00355     0.78159
      H   18    0.20894      0.00000     0.78829    0.00277     0.79106
      H   19    0.21841      0.00000     0.77803    0.00355     0.78159
      H   20    0.19477      0.00000     0.80217    0.00307     0.80523
      H   21    0.17359      0.00000     0.82380    0.00261     0.82641
      H   22    0.17217      0.00000     0.82521    0.00261     0.82783
      H   23    0.49144      0.00000     0.50541    0.00315     0.50856
 =======================================================================
   * Total *    0.00000     25.99132    69.67110    0.33758    96.00000

                      1                      2                      3
                      A                      A                      A
 Frequencies --     12.0828                60.0159                97.1311
 Red. masses --      9.4359                 2.9166                 5.5563
 Frc consts  --      0.0008                 0.0062                 0.0309
 IR Inten    --      2.1348                 5.8163                 3.9120

                      4                      5                      6
                      A                      A                      A
 Frequencies --     98.1044               124.0911               189.8877
 Red. masses --      3.5650                 6.2011                 3.9111
 Frc consts  --      0.0202                 0.0563                 0.0831
 IR Inten    --      0.0043                 0.1250                 1.8310

                      7                      8                      9
                      A                      A                      A
 Frequencies --    204.5067               212.6986               269.7598
 Red. masses --      1.7605                 5.2329                 1.1462
 Frc consts  --      0.0434                 0.1395                 0.0491
 IR Inten    --      0.0036                 1.0665                 0.1403

                     10                     11                     12
                      A                      A                      A
 Frequencies --    299.5804               321.4539               362.4637
 Red. masses --      1.5555                 3.1468                 5.8521
 Frc consts  --      0.0823                 0.1916                 0.4530
 IR Inten    --      0.0064                 1.5188                 1.0935

                     13                     14                     15
                      A                      A                      A
 Frequencies --    378.1506               438.0997               498.5889
 Red. masses --      4.9892                 4.9351                 4.7065
 Frc consts  --      0.4204                 0.5581                 0.6893
 IR Inten    --      0.0353                 0.2046                 4.8322

                     16                     17                     18
                      A                      A                      A
 Frequencies --    569.7336               591.7448               623.7989
 Red. masses --      2.2638                 4.2967                 1.8427
 Frc consts  --      0.4330                 0.8865                 0.4225
 IR Inten    --     55.7915                 9.0440                22.7981

                     19                     20                     21
                      A                      A                      A
 Frequencies --    625.2955               639.4083               721.8486
 Red. masses --      4.8269                 4.0649                 4.8164
 Frc consts  --      1.1120                 0.9792                 1.4786
 IR Inten    --     56.8538                 1.1318                 6.3419

                     22                     23                     24
                      A                      A                      A
 Frequencies --    757.4768               788.4637               800.5108
 Red. masses --      1.3514                 6.1207                 4.9585
 Frc consts  --      0.4568                 2.2419                 1.8721
 IR Inten    --     51.0780                35.0388                14.7159

                     25                     26                     27
                      A                      A                      A
 Frequencies --    823.8662               872.5503               961.3482
 Red. masses --      5.6780                 1.4578                 5.3704
 Frc consts  --      2.2707                 0.6539                 2.9243
 IR Inten    --     15.5320                 0.0023                 0.6927

                     28                     29                     30
                      A                      A                      A
 Frequencies --    997.4848              1102.5179              1118.1503
 Red. masses --      1.3038                 4.8482                 7.1172
 Frc consts  --      0.7643                 3.4722                 5.2428
 IR Inten    --      0.3362                39.5318                31.3046

                     31                     32                     33
                      A                      A                      A
 Frequencies --   1147.0779              1181.0569              1182.6732
 Red. masses --      2.0893                 1.7582                 1.2787
 Frc consts  --      1.6197                 1.4450                 1.0538
 IR Inten    --     73.3538               173.3884                 3.0447

                     34                     35                     36
                      A                      A                      A
 Frequencies --   1182.8651              1209.3053              1216.8439
 Red. masses --      1.2812                 1.4877                 2.0990
 Frc consts  --      1.0562                 1.2819                 1.8312
 IR Inten    --      1.3076                 0.1449                91.5729

                     37                     38                     39
                      A                      A                      A
 Frequencies --   1221.7922              1229.2464              1303.1056
 Red. masses --      1.3669                 1.7756                 2.1013
 Frc consts  --      1.2022                 1.5807                 2.1024
 IR Inten    --      2.6771               173.9105               229.7592

                     40                     41                     42
                      A                      A                      A
 Frequencies --   1345.0936              1347.5396              1388.3834
 Red. masses --      5.3607                 3.4628                 3.7537
 Frc consts  --      5.7144                 3.7047                 4.2631
 IR Inten    --     97.7017                 6.1695               135.1316

                     43                     44                     45
                      A                      A                      A
 Frequencies --   1474.0547              1485.8729              1507.3230
 Red. masses --      1.2501                 1.2395                 1.0435
 Frc consts  --      1.6004                 1.6123                 1.3969
 IR Inten    --     62.7815                 0.9906                 0.0029

                     46                     47                     48
                      A                      A                      A
 Frequencies --   1507.4337              1515.0439              1515.9721
 Red. masses --      1.0436                 1.0469                 1.0807
 Frc consts  --      1.3972                 1.4158                 1.4634
 IR Inten    --     16.8538                27.1102                 6.1477

                     49                     50                     51
                      A                      A                      A
 Frequencies --   1528.4965              1545.5381              1668.6825
 Red. masses --      2.4498                 3.5307                 7.9323
 Frc consts  --      3.3722                 4.9691                13.0136
 IR Inten    --    221.5629                 2.5415                85.7518

                     52                     53                     54
                      A                      A                      A
 Frequencies --   1672.9991              1870.6625              3046.6572
 Red. masses --      7.5973                10.7590                 1.0345
 Frc consts  --     12.5285                22.1826                 5.6575
 IR Inten    --    218.3736               379.1861                69.4841

                     55                     56                     57
                      A                      A                      A
 Frequencies --   3046.7596              3109.2422              3109.2444
 Red. masses --      1.0346                 1.1061                 1.1061
 Frc consts  --      5.6583                 6.3001                 6.3000
 IR Inten    --     13.7279                 0.5370                45.5160

                     58                     59                     60
                      A                      A                      A
 Frequencies --   3174.1644              3174.2342              3210.1234
 Red. masses --      1.1005                 1.1005                 1.0894
 Frc consts  --      6.5329                 6.5330                 6.6142
 IR Inten    --     15.4930                10.4604                 6.0502

                     61                     62                     63
                      A                      A                      A
 Frequencies --   3252.0562              3254.5053              3797.9181
 Red. masses --      1.0908                 1.0934                 1.0640
 Frc consts  --      6.7969                 6.8237                 9.0420
 IR Inten    --      2.8996                 0.2535                92.0690

 - Thermochemistry -
 -------------------
 Temperature   298.150 Kelvin.  Pressure   1.00000 Atm.
 Atom     1 has atomic number  6 and mass  12.00000

 Molecular mass:   182.05791 amu.
 Principal axes and moments of inertia in atomic units:
                           1         2         3
     Eigenvalues --  1653.588042477.860243815.68203
           X            1.00000   0.00000   0.00000
           Y            0.00000   0.99997   0.00747
           Z            0.00000  -0.00747   0.99997
 This molecule is an asymmetric top.
 Rotational symmetry number  1.
 Warning -- assumption of classical behavior for rotation
           may cause significant error
 Rotational temperatures (Kelvin)      0.05238     0.03496     0.02270
 Rotational constants (GHZ):           1.09141     0.72835     0.47298
 Zero-point vibrational energy     478403.3 (Joules/Mol)
                                  114.34113 (Kcal/Mol)
 Warning -- explicit consideration of  17 degrees of freedom as
           vibrations may cause significant error
 Vibrational temperatures:     17.38    86.35   139.75   141.15   178.54
          (Kelvin)            273.21   294.24   306.03   388.12   431.03
                              462.50   521.50   544.07   630.33   717.36
                              819.72   851.39   897.51   899.66   919.97
                             1038.58  1089.84  1134.42  1151.76  1185.36
                             1255.41  1383.17  1435.16  1586.28  1608.77
                             1650.39  1699.28  1701.60  1701.88  1739.92
                             1750.77  1757.89  1768.61  1874.88  1935.29
                             1938.81  1997.57  2120.84  2137.84  2168.70
                             2168.86  2179.81  2181.15  2199.17  2223.68
                             2400.86  2407.07  2691.47  4383.46  4383.61
                             4473.51  4473.51  4566.91  4567.02  4618.65
                             4678.98  4682.51  5464.36

 Zero-point correction=                           0.182214 (Hartree/Particle)
 Thermal correction to Energy=                    0.194678
 Thermal correction to Enthalpy=                  0.195622
 Thermal correction to Gibbs Free Energy=         0.141743
 Sum of electronic and zero-point Energies=           -649.677492
 Sum of electronic and thermal Energies=              -649.665028
 Sum of electronic and thermal Enthalpies=            -649.664084
 Sum of electronic and thermal Free Energies=         -649.717963

                     E (Thermal)             CV                S
                      KCal/Mol        Cal/Mol-Kelvin    Cal/Mol-Kelvin
 Total                  122.162             45.241            113.398
 Electronic               0.000              0.000              0.000
 Translational            0.889              2.981             41.504
 Rotational               0.889              2.981             31.125
 Vibrational            120.385             39.279             40.768
 Vibration     1          0.593              1.987              7.635
 Vibration     2          0.597              1.973              4.457
 Vibration     3          0.603              1.951              3.511
 Vibration     4          0.604              1.951              3.492
 Vibration     5          0.610              1.929              3.036
 Vibration     6          0.633              1.854              2.229
 Vibration     7          0.640              1.833              2.092
 Vibration     8          0.644              1.822              2.020
 Vibration     9          0.674              1.729              1.598
 Vibration    10          0.692              1.674              1.419
 Vibration    11          0.707              1.632              1.303
 Vibration    12          0.736              1.550              1.112
 Vibration    13          0.748              1.517              1.047
 Vibration    14          0.798              1.387              0.833
 Vibration    15          0.854              1.253              0.662
 Vibration    16          0.926              1.097              0.505
 Vibration    17          0.949              1.049              0.464

 Optimization completed.
    -- Stationary point found.
 Normal termination of Gaussian 16 at Wed Mar  5 01:15:50 2025.
