 Gaussian 16, Revision C.01,
 Gaussian 16:  ES64L-G16RevC.01  3-Jul-2019

 ------------------------------------
 # opt freq m062x/aug-cc-pvtz pop=nbo
 ------------------------------------

 -
 2
 -
 Symbolic Z-matrix:
 Charge =  0 Multiplicity = 1

 SCF Done:  E(RM062X) =  -486.067363802     A.U. after   14 cycles
 SCF Done:  E(RM062X) =  -486.115359560     A.U. after   12 cycles
 SCF Done:  E(RM062X) =  -486.135881513     A.U. after   13 cycles
 SCF Done:  E(RM062X) =  -486.144853551     A.U. after   13 cycles
 SCF Done:  E(RM062X) =  -486.149054448     A.U. after   14 cycles
 SCF Done:  E(RM062X) =  -486.149882717     A.U. after   11 cycles
 SCF Done:  E(RM062X) =  -486.149913649     A.U. after   10 cycles
 SCF Done:  E(RM062X) =  -486.150038259     A.U. after   10 cycles
 SCF Done:  E(RM062X) =  -486.150063417     A.U. after    9 cycles
 SCF Done:  E(RM062X) =  -486.150105991     A.U. after   10 cycles
 SCF Done:  E(RM062X) =  -486.150128081     A.U. after   10 cycles
 SCF Done:  E(RM062X) =  -486.150155675     A.U. after   10 cycles
 SCF Done:  E(RM062X) =  -486.150180932     A.U. after   10 cycles
 SCF Done:  E(RM062X) =  -486.150195901     A.U. after   10 cycles
 SCF Done:  E(RM062X) =  -486.150226256     A.U. after   10 cycles
 SCF Done:  E(RM062X) =  -486.150275828     A.U. after   11 cycles
 SCF Done:  E(RM062X) =  -486.150284881     A.U. after    9 cycles
 SCF Done:  E(RM062X) =  -486.150285830     A.U. after    8 cycles
 Optimization completed.
    -- Stationary point found.
 Normal termination of Gaussian 16 at Tue Mar  4 18:03:29 2025.

 ----------------------------------------------------------------------
 #N Geom=AllCheck Guess=TCheck SCRF=Check GenChk RM062X/Aug-CC-pVTZ Fre
 q
 ----------------------------------------------------------------------

 Structure from the checkpoint file:  "2.chk"
 -
 2
 -
 Charge =  0 Multiplicity = 1

                         Standard orientation:
 ---------------------------------------------------------------------
 Center     Atomic      Atomic             Coordinates (Angstroms)
 Number     Number       Type             X           Y           Z
 ---------------------------------------------------------------------
      1          6           0       -3.014840    0.618906    0.000191
      2          7           0       -1.667687    0.082515   -0.000142
      3          7           0       -1.418223   -1.212057   -0.000049
      4          7           0       -0.128727   -1.335467   -0.000094
      5          6           0        0.361925   -0.081290    0.000000
      6          7           0       -0.597229    0.831029   -0.000150
      7          6           0        1.801105    0.280201    0.000085
      8          8           0        2.206993    1.405185   -0.000068
      9          8           0        2.580953   -0.804978    0.000133
     10          1           0       -3.694507   -0.226086    0.000982
     11          1           0       -3.155802    1.226748    0.889326
     12          1           0       -3.156723    1.225703   -0.889525
     13          1           0        3.497386   -0.497070    0.000085
 ---------------------------------------------------------------------

 SCF Done:  E(RM062X) =  -486.150285830     A.U. after    1 cycles

 The electronic state is 1-A.
 Alpha  occ. eigenvalues --  -19.68868 -19.63498 -14.90629 -14.84949 -14.82410
 Alpha  occ. eigenvalues --  -14.80538 -10.70175 -10.62697 -10.61515  -1.30613
 Alpha  occ. eigenvalues --   -1.25931  -1.16459  -1.09381  -1.02866  -0.88267
 Alpha  occ. eigenvalues --   -0.81448  -0.74639  -0.71398  -0.64714  -0.63220
 Alpha  occ. eigenvalues --   -0.59298  -0.58192  -0.56000  -0.52413  -0.52185
 Alpha  occ. eigenvalues --   -0.50345  -0.48208  -0.41990  -0.41604  -0.40435
 Alpha  occ. eigenvalues --   -0.38627  -0.37844  -0.37129
 Alpha virt. eigenvalues --   -0.02200  -0.01142  -0.00148   0.00328   0.01655
 Alpha virt. eigenvalues --    0.01961   0.02342   0.04279   0.04623   0.05842
 Alpha virt. eigenvalues --    0.06118   0.06312   0.07200   0.07850   0.08198

 Mulliken charges:
               1
     1  C   -0.728981
     2  N    1.100550
     3  N   -0.697580
     4  N   -0.161633
     5  C    0.529488
     6  N   -0.830355
     7  C    0.735323
     8  O   -0.816094
     9  O   -0.461353
    10  H    0.388664
    11  H    0.317430
    12  H    0.317400
    13  H    0.307143
 Sum of Mulliken charges =   0.00000

 Dipole moment (field-independent basis, Debye):
    X=             -2.5452    Y=              0.6523    Z=              0.0007  Tot=              2.6275
 Quadrupole moment (field-independent basis, Debye-Ang):
   XX=            -33.1269   YY=            -62.0725   ZZ=            -49.4738
   XY=             -7.8469   XZ=             -0.0006   YZ=              0.0008

  Exact polarizability:      95.572      -1.368      70.616       0.001      -0.001      44.982
 Approx polarizability:     103.358       0.028      98.707       0.002      -0.002      58.948

 Summary of Natural Population Analysis:

                                       Natural Population
                Natural  -----------------------------------------------
    Atom  No    Charge         Core      Valence    Rydberg      Total
 -----------------------------------------------------------------------
      C    1   -0.38134      1.99939     4.36765    0.01429     6.38134
      N    2   -0.00045      1.99961     4.96705    0.03379     7.00045
      N    3   -0.03612      1.99961     5.00069    0.03583     7.03612
      N    4   -0.23121      1.99951     5.19194    0.03977     7.23121
      C    5    0.13815      1.99929     3.82567    0.03688     5.86185
      N    6   -0.20096      1.99943     5.17103    0.03050     7.20096
      C    7    0.77399      1.99943     3.19154    0.03504     5.22601
      O    8   -0.56532      1.99977     6.53288    0.03267     8.56532
      O    9   -0.67085      1.99978     6.64348    0.02760     8.67085
      H   10    0.23060      0.00000     0.76664    0.00276     0.76940
      H   11    0.22247      0.00000     0.77536    0.00217     0.77753
      H   12    0.22245      0.00000     0.77538    0.00217     0.77755
      H   13    0.49861      0.00000     0.49832    0.00306     0.50139
 =======================================================================
   * Total *    0.00000     17.99582    47.70765    0.29653    66.00000

                      1                      2                      3
                      A                      A                      A
 Frequencies --     50.2427                82.8500               151.6538
 Red. masses --      5.2781                 1.1727                 4.5578
 Frc consts  --      0.0079                 0.0047                 0.0618
 IR Inten    --      5.0464                 0.3487                 2.0026

                      4                      5                      6
                      A                      A                      A
 Frequencies --    173.4241               293.3991               355.8960
 Red. masses --      5.9165                 4.7848                 4.1638
 Frc consts  --      0.1048                 0.2427                 0.3107
 IR Inten    --      6.7438                 0.3755                 0.5284

                      7                      8                      9
                      A                      A                      A
 Frequencies --    421.9257               535.4543               580.9416
 Red. masses --      7.2879                 8.9195                 1.2514
 Frc consts  --      0.7644                 1.5067                 0.2488
 IR Inten    --      9.4118                 4.4707                72.8650

                     10                     11                     12
                      A                      A                      A
 Frequencies --    701.0855               711.8939               742.0375
 Red. masses --      3.9076                 6.2490                 9.0120
 Frc consts  --      1.1316                 1.8659                 2.9236
 IR Inten    --     27.2361                45.2882                11.7656

                     13                     14                     15
                      A                      A                      A
 Frequencies --    774.4125               838.4041              1057.4916
 Red. masses --      4.9964                11.8850                 2.3655
 Frc consts  --      1.7654                 4.9222                 1.5586
 IR Inten    --     71.3774                 6.7666                 2.5452

                     16                     17                     18
                      A                      A                      A
 Frequencies --   1077.5649              1115.2899              1156.0359
 Red. masses --      6.6844                 7.1296                 1.3417
 Frc consts  --      4.5730                 5.2250                 1.0565
 IR Inten    --      6.6333                51.9187                 0.0000

                     19                     20                     21
                      A                      A                      A
 Frequencies --   1201.9961              1295.8267              1334.3514
 Red. masses --      2.3644                 5.4868                 5.8239
 Frc consts  --      2.0127                 5.4283                 6.1095
 IR Inten    --    275.2679                11.7047                26.5561

                     22                     23                     24
                      A                      A                      A
 Frequencies --   1348.6764              1445.8377              1463.2308
 Red. masses --      3.0360                 1.5866                 5.4772
 Frc consts  --      3.2536                 1.9541                 6.9093
 IR Inten    --     49.6037                16.2178                30.7455

                     25                     26                     27
                      A                      A                      A
 Frequencies --   1470.0683              1487.6465              1512.3382
 Red. masses --      3.3430                 1.0394                 1.1801
 Frc consts  --      4.2566                 1.3553                 1.5903
 IR Inten    --     37.6537                11.4959                13.7866

                     28                     29                     30
                      A                      A                      A
 Frequencies --   1578.3130              1879.0253              3101.5339
 Red. masses --      8.8605                10.9581                 1.0315
 Frc consts  --     13.0046                22.7956                 5.8459
 IR Inten    --     27.9134               357.6940                 9.3332

                     31                     32                     33
                      A                      A                      A
 Frequencies --   3181.5781              3207.4097              3814.3608
 Red. masses --      1.1067                 1.1062                 1.0645
 Frc consts  --      6.6006                 6.7049                 9.1248
 IR Inten    --      1.0255                 0.0579               131.6201

 - Thermochemistry -
 -------------------
 Temperature   298.150 Kelvin.  Pressure   1.00000 Atm.
 Atom     1 has atomic number  6 and mass  12.00000

 Molecular mass:   128.03343 amu.
 Principal axes and moments of inertia in atomic units:
                           1         2         3
     Eigenvalues --   384.114171621.319771994.04553
           X            0.99969  -0.02501   0.00000
           Y            0.02501   0.99969   0.00000
           Z            0.00000   0.00000   1.00000
 This molecule is an asymmetric top.
 Rotational symmetry number  1.
 Rotational temperatures (Kelvin)      0.22549     0.05342     0.04344
 Rotational constants (GHZ):           4.69845     1.11313     0.90507
 Zero-point vibrational energy     240103.7 (Joules/Mol)
                                   57.38615 (Kcal/Mol)
 Warning -- explicit consideration of   9 degrees of freedom as
           vibrations may cause significant error
 Vibrational temperatures:     72.29   119.20   218.20   249.52   422.14
          (Kelvin)            512.06   607.06   770.40   835.85  1008.71
                             1024.26  1067.63  1114.21  1206.28  1521.49
                             1550.38  1604.65  1663.28  1729.40  1864.41
                             1919.83  1940.44  2080.24  2105.26  2115.10
                             2140.39  2175.92  2270.84  2703.50  4462.42
                             4577.58  4614.75  5488.01

 Zero-point correction=                           0.091451 (Hartree/Particle)
 Thermal correction to Energy=                    0.099221
 Thermal correction to Enthalpy=                  0.100166
 Thermal correction to Gibbs Free Energy=         0.057885
 Sum of electronic and zero-point Energies=           -486.058835
 Sum of electronic and thermal Energies=              -486.051064
 Sum of electronic and thermal Enthalpies=            -486.050120
 Sum of electronic and thermal Free Energies=         -486.092401

                     E (Thermal)             CV                S
                      KCal/Mol        Cal/Mol-Kelvin    Cal/Mol-Kelvin
 Total                   62.262             26.477             88.987
 Electronic               0.000              0.000              0.000
 Translational            0.889              2.981             40.455
 Rotational               0.889              2.981             28.609
 Vibrational             60.485             20.515             19.924
 Vibration     1          0.595              1.977              4.808
 Vibration     2          0.600              1.961              3.822
 Vibration     3          0.619              1.901              2.651
 Vibration     4          0.627              1.875              2.398
 Vibration     5          0.688              1.686              1.454
 Vibration     6          0.731              1.563              1.140
 Vibration     7          0.784              1.423              0.885
 Vibration     8          0.890              1.172              0.575
 Vibration     9          0.938              1.073              0.484

 Optimization completed.
    -- Stationary point found.
 Normal termination of Gaussian 16 at Tue Mar  4 18:19:26 2025.
