 Gaussian 16, Revision C.01,
 Gaussian 16:  ES64L-G16RevC.01  3-Jul-2019

 ------------------------------------
 # opt freq m062x/aug-cc-pvtz pop=nbo
 ------------------------------------

 --
 20
 --
 Symbolic Z-matrix:
 Charge =  0 Multiplicity = 1

 SCF Done:  E(RM062X) =  -634.560786131     A.U. after   14 cycles
 SCF Done:  E(RM062X) =  -634.589573167     A.U. after   12 cycles
 SCF Done:  E(RM062X) =  -634.592655472     A.U. after   12 cycles
 SCF Done:  E(RM062X) =  -634.592811048     A.U. after   10 cycles
 SCF Done:  E(RM062X) =  -634.592840106     A.U. after   10 cycles
 SCF Done:  E(RM062X) =  -634.592843006     A.U. after    9 cycles
 Optimization completed.
    -- Stationary point found.
 Normal termination of Gaussian 16 at Tue Mar  4 18:58:08 2025.

 ----------------------------------------------------------------------
 #N Geom=AllCheck Guess=TCheck SCRF=Check GenChk RM062X/Aug-CC-pVTZ Fre
 q
 ----------------------------------------------------------------------

 Structure from the checkpoint file:  "20.chk"
 --
 20
 --
 Charge =  0 Multiplicity = 1

                         Standard orientation:
 ---------------------------------------------------------------------
 Center     Atomic      Atomic             Coordinates (Angstroms)
 Number     Number       Type             X           Y           Z
 ---------------------------------------------------------------------
      1          6           0       -1.045449   -0.200246   -0.000067
      2          6           0       -0.426672   -1.457377   -0.000034
      3          6           0        0.940144   -1.592385   -0.000018
      4          6           0        1.748914   -0.451575   -0.000037
      5          6           0        1.168783    0.811319   -0.000081
      6          6           0       -0.211565    0.911084   -0.000086
      7          9           0       -0.718997    2.139791   -0.000136
      8          8           0        3.078108   -0.663069   -0.000040
      9          6           0        3.931152    0.465216    0.000178
     10          6           0       -2.517475   -0.064731   -0.000063
     11          8           0       -3.137550    0.962368    0.000267
     12          8           0       -3.136281   -1.268288   -0.000010
     13          1           0       -1.053739   -2.336264   -0.000020
     14          1           0        1.413528   -2.563052    0.000011
     15          1           0        1.744609    1.723142   -0.000129
     16          1           0        4.944420    0.077089    0.000375
     17          1           0        3.772763    1.074427   -0.891774
     18          1           0        3.772387    1.074360    0.892107
     19          1           0       -4.084195   -1.083740    0.000176
 ---------------------------------------------------------------------

 SCF Done:  E(RM062X) =  -634.592843006     A.U. after    1 cycles

 The electronic state is 1-A.
 Alpha  occ. eigenvalues --  -25.26547 -19.68117 -19.67327 -19.61636 -10.68333
 Alpha  occ. eigenvalues --  -10.65282 -10.63377 -10.60820 -10.56929 -10.56721
 Alpha  occ. eigenvalues --  -10.56103 -10.55383  -1.38850  -1.24169  -1.22253
 Alpha  occ. eigenvalues --   -1.14437  -0.99035  -0.89216  -0.87457  -0.82424
 Alpha  occ. eigenvalues --   -0.75665  -0.72229  -0.70036  -0.65071  -0.61468
 Alpha  occ. eigenvalues --   -0.60708  -0.58627  -0.58582  -0.57305  -0.57241
 Alpha  occ. eigenvalues --   -0.54206  -0.53978  -0.53197  -0.50499  -0.48805
 Alpha  occ. eigenvalues --   -0.47110  -0.46832  -0.44475  -0.42636  -0.41337
 Alpha  occ. eigenvalues --   -0.40095  -0.35984  -0.32759  -0.30144
 Alpha virt. eigenvalues --   -0.01873  -0.01067  -0.00221   0.00533   0.00631
 Alpha virt. eigenvalues --    0.01327   0.01377   0.02333   0.03513   0.03799
 Alpha virt. eigenvalues --    0.03866   0.05109   0.05711   0.06395   0.06903

 Mulliken charges:
               1
     1  C    1.367851
     2  C   -0.123558
     3  C   -0.649462
     4  C    1.219705
     5  C   -0.459215
     6  C    0.174591
     7  F   -0.586037
     8  O   -0.792016
     9  C   -1.025456
    10  C    0.423056
    11  O   -0.905418
    12  O   -0.536592
    13  H   -0.002005
    14  H    0.343734
    15  H    0.225223
    16  H    0.300121
    17  H    0.363542
    18  H    0.363518
    19  H    0.298415
 Sum of Mulliken charges =   0.00000

 Dipole moment (field-independent basis, Debye):
    X=              3.1913    Y=             -1.4680    Z=              0.0000  Tot=              3.5127
 Quadrupole moment (field-independent basis, Debye-Ang):
   XX=            -57.5234   YY=            -69.9591   ZZ=            -69.5697
   XY=             12.4824   XZ=              0.0016   YZ=             -0.0010

  Exact polarizability:     155.157       1.049     107.213       0.000       0.001      63.565
 Approx polarizability:     169.059      -5.176     146.991      -0.001       0.002      85.272

 Summary of Natural Population Analysis:

                                       Natural Population
                Natural  -----------------------------------------------
    Atom  No    Charge         Core      Valence    Rydberg      Total
 -----------------------------------------------------------------------
      C    1   -0.29119      1.99890     4.26355    0.02874     6.29119
      C    2   -0.12757      1.99924     4.10731    0.02102     6.12757
      C    3   -0.27027      1.99916     4.25252    0.01859     6.27027
      C    4    0.36035      1.99895     3.61297    0.02772     5.63965
      C    5   -0.38492      1.99905     4.36611    0.01976     6.38492
      C    6    0.51781      1.99858     3.45510    0.02850     5.48219
      F    7   -0.31788      1.99993     7.30861    0.00933     9.31788
      O    8   -0.50833      1.99973     6.48097    0.02762     8.50833
      C    9   -0.21982      1.99936     4.20720    0.01326     6.21982
      C   10    0.80216      1.99941     3.16371    0.03472     5.19784
      O   11   -0.58794      1.99977     6.55538    0.03279     8.58794
      O   12   -0.70992      1.99979     6.68563    0.02451     8.70992
      H   13    0.23256      0.00000     0.76379    0.00365     0.76744
      H   14    0.22605      0.00000     0.76959    0.00436     0.77395
      H   15    0.23370      0.00000     0.76149    0.00481     0.76630
      H   16    0.19570      0.00000     0.80013    0.00417     0.80430
      H   17    0.17555      0.00000     0.82181    0.00264     0.82445
      H   18    0.17556      0.00000     0.82181    0.00264     0.82444
      H   19    0.49847      0.00000     0.49821    0.00332     0.50153
 =======================================================================
   * Total *    0.00006     23.99188    63.69591    0.31216    87.99994

                      1                      2                      3
                      A                      A                      A
 Frequencies --     42.4131                69.2706               138.5092
 Red. masses --     11.8680                 4.1577                 4.2377
 Frc consts  --      0.0126                 0.0118                 0.0479
 IR Inten    --      1.1162                 1.6064                 2.5464

                      4                      5                      6
                      A                      A                      A
 Frequencies --    175.6483               212.3610               246.1838
 Red. masses --      6.1156                 2.5182                 4.7277
 Frc consts  --      0.1112                 0.0669                 0.1688
 IR Inten    --      2.4530                 0.3467                 1.9900

                      7                      8                      9
                      A                      A                      A
 Frequencies --    267.7801               308.8361               316.9872
 Red. masses --      1.8857                 2.7059                 8.3470
 Frc consts  --      0.0797                 0.1521                 0.4942
 IR Inten    --      0.4490                 2.7468                 0.5259

                     10                     11                     12
                      A                      A                      A
 Frequencies --    394.4307               469.2879               485.2945
 Red. masses --     11.2784                 2.7615                 4.8210
 Frc consts  --      1.0338                 0.3583                 0.6690
 IR Inten    --      0.0843                12.4279                 4.0714

                     13                     14                     15
                      A                      A                      A
 Frequencies --    521.5023               572.5145               595.2393
 Red. masses --      7.0455                 1.2048                 6.6600
 Frc consts  --      1.1289                 0.2327                 1.3903
 IR Inten    --      1.0520                70.0263                23.7288

                     16                     17                     18
                      A                      A                      A
 Frequencies --    612.5911               660.0465               711.2394
 Red. masses --      4.6667                 4.5768                 2.8918
 Frc consts  --      1.0318                 1.1748                 0.8619
 IR Inten    --     66.6677                 0.0196                30.9446

                     19                     20                     21
                      A                      A                      A
 Frequencies --    743.9700               769.7681               804.2441
 Red. masses --      5.7212                 4.7789                 2.8585
 Frc consts  --      1.8657                 1.6684                 1.0893
 IR Inten    --      3.0826                14.3403                34.2700

                     22                     23                     24
                      A                      A                      A
 Frequencies --    868.3903               877.5060               994.8422
 Red. masses --      1.9534                 1.7720                 3.3834
 Frc consts  --      0.8679                 0.8039                 1.9729
 IR Inten    --      0.6196                49.8368                25.7572

                     25                     26                     27
                      A                      A                      A
 Frequencies --   1009.4954              1087.9911              1114.1969
 Red. masses --      1.3415                 3.9570                 4.0111
 Frc consts  --      0.8055                 2.7597                 2.9339
 IR Inten    --      0.1401               102.0738                21.6267

                     28                     29                     30
                      A                      A                      A
 Frequencies --   1160.9570              1185.3209              1204.4117
 Red. masses --      1.6034                 1.2781                 1.4606
 Frc consts  --      1.2733                 1.0580                 1.2484
 IR Inten    --    223.9247                 1.1793                14.6376

                     31                     32                     33
                      A                      A                      A
 Frequencies --   1216.2142              1244.6898              1288.9713
 Red. masses --      1.8536                 1.9511                 1.6412
 Frc consts  --      1.6154                 1.7809                 1.6066
 IR Inten    --    238.8684                98.2740                 0.1833

                     34                     35                     36
                      A                      A                      A
 Frequencies --   1316.2081              1379.8988              1395.5400
 Red. masses --      5.9284                 3.0632                 4.6083
 Frc consts  --      6.0511                 3.4365                 5.2878
 IR Inten    --     83.8178                 2.7756               356.9466

                     37                     38                     39
                      A                      A                      A
 Frequencies --   1470.2347              1496.4160              1508.9661
 Red. masses --      2.0148                 1.6929                 1.0430
 Frc consts  --      2.5659                 2.2335                 1.3992
 IR Inten    --      5.0223                30.6349                 9.2642

                     40                     41                     42
                      A                      A                      A
 Frequencies --   1517.5015              1562.7426              1649.2395
 Red. masses --      1.1412                 3.3003                 8.6254
 Frc consts  --      1.5483                 4.7488                13.8228
 IR Inten    --     37.3459                74.7093                68.1330

                     43                     44                     45
                      A                      A                      A
 Frequencies --   1690.8023              1853.8271              3049.7662
 Red. masses --      7.1960                10.3984                 1.0345
 Frc consts  --     12.1208                21.0551                 5.6692
 IR Inten    --    365.7437               486.3985                33.7178

                     46                     47                     48
                      A                      A                      A
 Frequencies --   3114.2887              3178.9873              3229.6193
 Red. masses --      1.1063                 1.1008                 1.0892
 Frc consts  --      6.3220                 6.5545                 6.6935
 IR Inten    --     20.3615                12.2338                 0.1232

                     49                     50                     51
                      A                      A                      A
 Frequencies --   3244.2740              3255.8146              3823.8228
 Red. masses --      1.0951                 1.0914                 1.0646
 Frc consts  --      6.7914                 6.8164                 9.1717
 IR Inten    --      1.0956                 0.3861               134.7605

 - Thermochemistry -
 -------------------
 Temperature   298.150 Kelvin.  Pressure   1.00000 Atm.
 Atom     1 has atomic number  6 and mass  12.00000

 Molecular mass:   170.03792 amu.
 Principal axes and moments of inertia in atomic units:
                           1         2         3
     Eigenvalues --   834.426713195.361414018.33522
           X            0.99971   0.02406   0.00000
           Y           -0.02406   0.99971   0.00000
           Z            0.00000   0.00000   1.00000
 This molecule is an asymmetric top.
 Rotational symmetry number  1.
 Warning -- assumption of classical behavior for rotation
           may cause significant error
 Rotational temperatures (Kelvin)      0.10380     0.02711     0.02155
 Rotational constants (GHZ):           2.16285     0.56480     0.44913
 Zero-point vibrational energy     371494.6 (Joules/Mol)
                                   88.78935 (Kcal/Mol)
 Warning -- explicit consideration of  16 degrees of freedom as
           vibrations may cause significant error
 Vibrational temperatures:     61.02    99.66   199.28   252.72   305.54
          (Kelvin)            354.20   385.28   444.35   456.07   567.50
                              675.20   698.23   750.33   823.72   856.42
                              881.38   949.66  1023.31  1070.41  1107.52
                             1157.13  1249.42  1262.54  1431.36  1452.44
                             1565.38  1603.08  1670.36  1705.41  1732.88
                             1749.86  1790.83  1854.54  1893.73  1985.37
                             2007.87  2115.34  2153.01  2171.07  2183.35
                             2248.44  2372.89  2432.69  2667.24  4387.93
                             4480.77  4573.85  4646.70  4667.79  4684.39
                             5501.63

 Zero-point correction=                           0.141495 (Hartree/Particle)
 Thermal correction to Energy=                    0.151931
 Thermal correction to Enthalpy=                  0.152875
 Thermal correction to Gibbs Free Energy=         0.104698
 Sum of electronic and zero-point Energies=           -634.451348
 Sum of electronic and thermal Energies=              -634.440912
 Sum of electronic and thermal Enthalpies=            -634.439968
 Sum of electronic and thermal Free Energies=         -634.488145

                     E (Thermal)             CV                S
                      KCal/Mol        Cal/Mol-Kelvin    Cal/Mol-Kelvin
 Total                   95.338             38.936            101.398
 Electronic               0.000              0.000              0.000
 Translational            0.889              2.981             41.300
 Rotational               0.889              2.981             30.750
 Vibrational             93.561             32.974             29.347
 Vibration     1          0.595              1.980              5.143
 Vibration     2          0.598              1.969              4.174
 Vibration     3          0.614              1.915              2.824
 Vibration     4          0.628              1.872              2.374
 Vibration     5          0.643              1.822              2.023
 Vibration     6          0.661              1.769              1.758
 Vibration     7          0.673              1.732              1.610
 Vibration     8          0.698              1.657              1.369
 Vibration     9          0.704              1.641              1.326
 Vibration    10          0.761              1.482              0.983
 Vibration    11          0.826              1.318              0.740
 Vibration    12          0.841              1.283              0.696
 Vibration    13          0.876              1.202              0.606
 Vibration    14          0.929              1.091              0.499
 Vibration    15          0.953              1.042              0.458
 Vibration    16          0.972              1.005              0.429

 Optimization completed.
    -- Stationary point found.
 Normal termination of Gaussian 16 at Tue Mar  4 19:50:49 2025.
