 Gaussian 16, Revision C.01,
 Gaussian 16:  ES64L-G16RevC.01  3-Jul-2019

 ------------------------------------
 # opt freq m062x/aug-cc-pvtz pop=nbo
 ------------------------------------

 --
 21
 --
 Symbolic Z-matrix:
 Charge =  0 Multiplicity = 1

 SCF Done:  E(RM062X) =  -535.315759615     A.U. after   14 cycles
 SCF Done:  E(RM062X) =  -535.344521291     A.U. after   12 cycles
 SCF Done:  E(RM062X) =  -535.347119143     A.U. after   12 cycles
 SCF Done:  E(RM062X) =  -535.347251488     A.U. after   11 cycles
 SCF Done:  E(RM062X) =  -535.347276545     A.U. after   10 cycles
 SCF Done:  E(RM062X) =  -535.347278797     A.U. after    8 cycles
 Optimization completed.
    -- Stationary point found.
 Normal termination of Gaussian 16 at Tue Mar  4 18:57:36 2025.

 ----------------------------------------------------------------------
 #N Geom=AllCheck Guess=TCheck SCRF=Check GenChk RM062X/Aug-CC-pVTZ Fre
 q
 ----------------------------------------------------------------------

 Structure from the checkpoint file:  "21.chk"
 --
 21
 --
 Charge =  0 Multiplicity = 1

                         Standard orientation:
 ---------------------------------------------------------------------
 Center     Atomic      Atomic             Coordinates (Angstroms)
 Number     Number       Type             X           Y           Z
 ---------------------------------------------------------------------
      1          6           0        1.103087   -0.018214   -0.000124
      2          6           0        0.540346    1.259416   -0.000063
      3          6           0       -0.828084    1.414012   -0.000031
      4          6           0       -1.658991    0.291054   -0.000054
      5          6           0       -1.105157   -0.988413   -0.000114
      6          6           0        0.272799   -1.130179   -0.000139
      7          8           0       -2.985840    0.540357   -0.000047
      8          6           0       -3.868825   -0.562698    0.000212
      9          6           0        2.564964   -0.236580   -0.000180
     10          8           0        3.103534   -1.312331    0.000157
     11          8           0        3.271558    0.913109    0.000154
     12          1           0        1.184501    2.126724   -0.000049
     13          1           0       -1.286593    2.392588    0.000013
     14          1           0       -1.731901   -1.866658   -0.000155
     15          1           0        0.723588   -2.113135   -0.000188
     16          1           0       -4.871359   -0.146945    0.000429
     17          1           0       -3.728902   -1.177419   -0.891294
     18          1           0       -3.728474   -1.177335    0.891707
     19          1           0        4.204291    0.662706    0.000389
 ---------------------------------------------------------------------

 SCF Done:  E(RM062X) =  -535.347278797     A.U. after    1 cycles

 The electronic state is 1-A.
 Alpha  occ. eigenvalues --  -19.67253 -19.67235 -19.61448 -10.67782 -10.62196
 Alpha  occ. eigenvalues --  -10.60223 -10.55973 -10.55961 -10.55628 -10.55363
 Alpha  occ. eigenvalues --  -10.54957  -1.23976  -1.21324  -1.14212  -0.97962
 Alpha  occ. eigenvalues --   -0.88215  -0.86477  -0.81575  -0.74580  -0.70890
 Alpha  occ. eigenvalues --   -0.67511  -0.63157  -0.59998  -0.58344  -0.56770
 Alpha  occ. eigenvalues --   -0.56428  -0.54076  -0.53375  -0.50595  -0.50106
 Alpha  occ. eigenvalues --   -0.49244  -0.46507  -0.45692  -0.44183  -0.41256
 Alpha  occ. eigenvalues --   -0.40400  -0.39755  -0.36091  -0.32603  -0.29425
 Alpha virt. eigenvalues --   -0.01556  -0.00928  -0.00112   0.00640   0.00737
 Alpha virt. eigenvalues --    0.01363   0.01475   0.02398   0.03426   0.03695
 Alpha virt. eigenvalues --    0.04028   0.04843   0.05765   0.05950   0.07171

 Mulliken charges:
               1
     1  C    1.809165
     2  C   -0.331065
     3  C   -0.723546
     4  C    1.295242
     5  C    0.026251
     6  C   -1.032009
     7  O   -0.870269
     8  C   -1.026369
     9  C    0.376900
    10  O   -0.915113
    11  O   -0.539428
    12  H    0.049808
    13  H    0.371559
    14  H    0.237522
    15  H   -0.054458
    16  H    0.310934
    17  H    0.360364
    18  H    0.360330
    19  H    0.294183
 Sum of Mulliken charges =   0.00000

 Dipole moment (field-independent basis, Debye):
    X=             -2.4668    Y=              0.4006    Z=              0.0000  Tot=              2.4992
 Quadrupole moment (field-independent basis, Debye-Ang):
   XX=            -54.1757   YY=            -63.4713   ZZ=            -66.1312
   XY=             11.0073   XZ=             -0.0012   YZ=              0.0010

  Exact polarizability:     154.674       0.345     105.966       0.000       0.001      63.844
 Approx polarizability:     168.417      -4.034     146.096       0.001       0.000      85.353

 Summary of Natural Population Analysis:

                                       Natural Population
                Natural  -----------------------------------------------
    Atom  No    Charge         Core      Valence    Rydberg      Total
 -----------------------------------------------------------------------
      C    1   -0.22518      1.99901     4.19786    0.02832     6.22518
      C    2   -0.12308      1.99888     4.10398    0.02022     6.12308
      C    3   -0.25942      1.99920     4.24081    0.01942     6.25942
      C    4    0.34334      1.99893     3.63152    0.02621     5.65666
      C    5   -0.30519      1.99915     4.29058    0.01546     6.30519
      C    6   -0.12632      1.99922     4.10672    0.02038     6.12632
      O    7   -0.51406      1.99974     6.48679    0.02753     8.51406
      C    8   -0.21812      1.99936     4.20556    0.01320     6.21812
      C    9    0.80601      1.99938     3.16076    0.03385     5.19399
      O   10   -0.61226      1.99977     6.58085    0.03164     8.61226
      O   11   -0.70439      1.99979     6.67966    0.02494     8.70439
      H   12    0.22626      0.00000     0.77049    0.00325     0.77374
      H   13    0.22270      0.00000     0.77294    0.00436     0.77730
      H   14    0.21891      0.00000     0.77807    0.00302     0.78109
      H   15    0.23255      0.00000     0.76442    0.00304     0.76745
      H   16    0.19355      0.00000     0.80221    0.00424     0.80645
      H   17    0.17380      0.00000     0.82365    0.00254     0.82620
      H   18    0.17381      0.00000     0.82365    0.00254     0.82619
      H   19    0.49711      0.00000     0.49950    0.00340     0.50289
 =======================================================================
   * Total *    0.00001     21.99242    57.72000    0.28758    79.99999

                      1                      2                      3
                      A                      A                      A
 Frequencies --     66.9416                82.3494               136.5010
 Red. masses --      5.4017                 4.6206                 4.4508
 Frc consts  --      0.0143                 0.0185                 0.0489
 IR Inten    --      3.2785                 0.0295                 2.3326

                      4                      5                      6
                      A                      A                      A
 Frequencies --    173.8599               255.1704               280.0584
 Red. masses --      5.5061                 1.4025                 3.7635
 Frc consts  --      0.0981                 0.0538                 0.1739
 IR Inten    --      2.9228                 0.8074                 0.9121

                      7                      8                      9
                      A                      A                      A
 Frequencies --    314.8956               345.6814               428.6079
 Red. masses --      2.4291                 7.9632                 2.9510
 Frc consts  --      0.1419                 0.5606                 0.3194
 IR Inten    --      3.2937                 1.1274                 0.4074

                     10                     11                     12
                      A                      A                      A
 Frequencies --    475.4589               516.4197               533.0735
 Red. masses --      5.3806                 2.4611                 4.8034
 Frc consts  --      0.7166                 0.3867                 0.8042
 IR Inten    --      5.4607                32.5899                 2.3251

                     13                     14                     15
                      A                      A                      A
 Frequencies --    586.9715               606.7485               645.6747
 Red. masses --      1.2197                 5.2912                 7.0298
 Frc consts  --      0.2476                 1.1477                 1.7267
 IR Inten    --     49.5478                68.8086                 6.2285

                     16                     17                     18
                      A                      A                      A
 Frequencies --    718.4419               740.7298               801.7366
 Red. masses --      3.2000                 4.0917                 4.5969
 Frc consts  --      0.9732                 1.3228                 1.7409
 IR Inten    --     29.7037                13.7934                62.9102

                     19                     20                     21
                      A                      A                      A
 Frequencies --    847.1793               853.3919               886.9883
 Red. masses --      5.4685                 1.2598                 1.9234
 Frc consts  --      2.3124                 0.5405                 0.8916
 IR Inten    --     16.1748                 0.0903                26.6498

                     22                     23                     24
                      A                      A                      A
 Frequencies --   1003.3098              1013.7940              1032.0654
 Red. masses --      1.3646                 1.3483                 2.7920
 Frc consts  --      0.8094                 0.8165                 1.7522
 IR Inten    --      0.2198                 0.0716                 2.0225

                     25                     26                     27
                      A                      A                      A
 Frequencies --   1105.7081              1134.6426              1143.4984
 Red. masses --      6.1865                 2.0906                 1.8105
 Frc consts  --      4.4564                 1.5858                 1.3948
 IR Inten    --     58.1597                90.5388                32.3435

                     28                     29                     30
                      A                      A                      A
 Frequencies --   1185.6887              1189.4319              1217.0937
 Red. masses --      1.2783                 1.2369                 1.4138
 Frc consts  --      1.0588                 1.0310                 1.2339
 IR Inten    --      1.1869               246.2070                12.1655

                     31                     32                     33
                      A                      A                      A
 Frequencies --   1225.3129              1315.5727              1331.9678
 Red. masses --      1.5637                 5.3331                 1.3444
 Frc consts  --      1.3833                 5.4383                 1.4053
 IR Inten    --    112.4807               165.1865                 9.3393

                     34                     35                     36
                      A                      A                      A
 Frequencies --   1353.4270              1396.3132              1467.9943
 Red. masses --      4.7545                 3.1248                 3.2721
 Frc consts  --      5.1312                 3.5895                 4.1545
 IR Inten    --    108.3288               300.5636                 1.8046

                     37                     38                     39
                      A                      A                      A
 Frequencies --   1486.1708              1509.6451              1516.5186
 Red. masses --      1.2222                 1.0434                 1.0591
 Frc consts  --      1.5905                 1.4010                 1.4351
 IR Inten    --      4.0052                 8.8874                28.8278

                     40                     41                     42
                      A                      A                      A
 Frequencies --   1567.2950              1649.1103              1680.9482
 Red. masses --      2.8910                 7.3119                 6.2166
 Frc consts  --      4.1841                11.7160                10.3493
 IR Inten    --     80.6207                 7.9665               224.4284

                     43                     44                     45
                      A                      A                      A
 Frequencies --   1839.1879              3047.1298              3110.2809
 Red. masses --     10.1982                 1.0345                 1.1061
 Frc consts  --     20.3248                 5.6596                 6.3046
 IR Inten    --    425.5851                37.6070                22.8349

                     46                     47                     48
                      A                      A                      A
 Frequencies --   3174.4953              3219.0480              3221.0608
 Red. masses --      1.1006                 1.0897                 1.0894
 Frc consts  --      6.5350                 6.6532                 6.6591
 IR Inten    --     14.2131                 0.1404                 0.6453

                     49                     50                     51
                      A                      A                      A
 Frequencies --   3235.4039              3243.8692              3824.5041
 Red. masses --      1.0954                 1.0927                 1.0646
 Frc consts  --      6.7556                 6.7747                 9.1744
 IR Inten    --      0.8217                 3.6863               129.6022

 - Thermochemistry -
 -------------------
 Temperature   298.150 Kelvin.  Pressure   1.00000 Atm.
 Atom     1 has atomic number  6 and mass  12.00000

 Molecular mass:   152.04734 amu.
 Principal axes and moments of inertia in atomic units:
                           1         2         3
     Eigenvalues --   514.475603139.004413642.03841
           X            0.99983   0.01822   0.00000
           Y           -0.01822   0.99983   0.00000
           Z            0.00000   0.00000   1.00000
 This molecule is an asymmetric top.
 Rotational symmetry number  1.
 Warning -- assumption of classical behavior for rotation
           may cause significant error
 Rotational temperatures (Kelvin)      0.16835     0.02759     0.02378
 Rotational constants (GHZ):           3.50792     0.57494     0.49553
 Zero-point vibrational energy     393196.8 (Joules/Mol)
                                   93.97629 (Kcal/Mol)
 Warning -- explicit consideration of  14 degrees of freedom as
           vibrations may cause significant error
 Vibrational temperatures:     96.31   118.48   196.39   250.15   367.13
          (Kelvin)            402.94   453.06   497.36   616.67   684.08
                              743.01   766.97   844.52   872.98   928.98
                             1033.68  1065.75  1153.52  1218.90  1227.84
                             1276.18  1443.54  1458.62  1484.91  1590.87
                             1632.50  1645.24  1705.94  1711.33  1751.13
                             1762.95  1892.82  1916.40  1947.28  2008.98
                             2112.12  2138.27  2172.04  2181.93  2254.99
                             2372.70  2418.51  2646.18  4384.14  4475.00
                             4567.39  4631.49  4634.39  4655.02  4667.20
                             5502.61

 Zero-point correction=                           0.149761 (Hartree/Particle)
 Thermal correction to Energy=                    0.159295
 Thermal correction to Enthalpy=                  0.160239
 Thermal correction to Gibbs Free Energy=         0.114504
 Sum of electronic and zero-point Energies=           -535.197518
 Sum of electronic and thermal Energies=              -535.187984
 Sum of electronic and thermal Enthalpies=            -535.187040
 Sum of electronic and thermal Free Energies=         -535.232775

                     E (Thermal)             CV                S
                      KCal/Mol        Cal/Mol-Kelvin    Cal/Mol-Kelvin
 Total                   99.959             35.987             96.258
 Electronic               0.000              0.000              0.000
 Translational            0.889              2.981             40.967
 Rotational               0.889              2.981             30.154
 Vibrational             98.182             30.025             25.137
 Vibration     1          0.598              1.970              4.241
 Vibration     2          0.600              1.961              3.834
 Vibration     3          0.614              1.917              2.852
 Vibration     4          0.627              1.875              2.393
 Vibration     5          0.666              1.754              1.695
 Vibration     6          0.680              1.710              1.533
 Vibration     7          0.702              1.645              1.336
 Vibration     8          0.724              1.584              1.186
 Vibration     9          0.790              1.408              0.863
 Vibration    10          0.832              1.304              0.722
 Vibration    11          0.871              1.214              0.618
 Vibration    12          0.888              1.177              0.580
 Vibration    13          0.944              1.060              0.473
 Vibration    14          0.965              1.018              0.438

 Optimization completed.
    -- Stationary point found.
 Normal termination of Gaussian 16 at Tue Mar  4 19:46:18 2025.
