 Gaussian 16, Revision C.01,
 Gaussian 16:  ES64L-G16RevC.01  3-Jul-2019

 ------------------------------------
 # opt freq m062x/aug-cc-pvtz pop=nbo
 ------------------------------------

 --
 23
 --
 Symbolic Z-matrix:
 Charge =  0 Multiplicity = 1

 SCF Done:  E(RM062X) =  -733.802110762     A.U. after   14 cycles
 SCF Done:  E(RM062X) =  -733.832414302     A.U. after   12 cycles
 SCF Done:  E(RM062X) =  -733.836341103     A.U. after   12 cycles
 SCF Done:  E(RM062X) =  -733.836609167     A.U. after   11 cycles
 SCF Done:  E(RM062X) =  -733.836832765     A.U. after   10 cycles
 SCF Done:  E(RM062X) =  -733.836842152     A.U. after    9 cycles
 SCF Done:  E(RM062X) =  -733.836843927     A.U. after    8 cycles
 SCF Done:  E(RM062X) =  -733.836843909     A.U. after    7 cycles
 Optimization completed.
    -- Stationary point found.
 Normal termination of Gaussian 16 at Tue Mar  4 19:56:49 2025.

 ----------------------------------------------------------------------
 #N Geom=AllCheck Guess=TCheck SCRF=Check GenChk RM062X/Aug-CC-pVTZ Fre
 q
 ----------------------------------------------------------------------

 Structure from the checkpoint file:  "23.chk"
 --
 23
 --
 Charge =  0 Multiplicity = 1

                         Standard orientation:
 ---------------------------------------------------------------------
 Center     Atomic      Atomic             Coordinates (Angstroms)
 Number     Number       Type             X           Y           Z
 ---------------------------------------------------------------------
      1          6           0       -0.965395    0.043115   -0.000195
      2          6           0       -0.378837   -1.232916   -0.000025
      3          6           0        0.976531   -1.445637    0.000063
      4          6           0        1.836265   -0.349226   -0.000011
      5          6           0        1.317917    0.940566   -0.000154
      6          6           0       -0.054050    1.101344   -0.000216
      7          9           0       -0.493952    2.352790   -0.000400
      8          9           0       -1.147660   -2.317823    0.000156
      9          8           0        3.149837   -0.628683    0.000067
     10          6           0        4.060869    0.455342    0.000186
     11          6           0       -2.425202    0.310129   -0.000311
     12          8           0       -2.922474    1.402526    0.001100
     13          8           0       -3.172568   -0.807513   -0.000484
     14          1           0        1.367716   -2.451298    0.000217
     15          1           0        1.933533    1.825196   -0.000241
     16          1           0        5.051964    0.014139    0.000397
     17          1           0        3.933629    1.070468   -0.892159
     18          1           0        3.933286    1.070559    0.892420
     19          1           0       -4.092564   -0.510703    0.000079
 ---------------------------------------------------------------------

 SCF Done:  E(RM062X) =  -733.836843909     A.U. after    1 cycles

 The electronic state is 1-A.
 Alpha  occ. eigenvalues --  -25.27221 -25.27198 -19.68822 -19.67401 -19.61815
 Alpha  occ. eigenvalues --  -10.68994 -10.66358 -10.66206 -10.64428 -10.61306
 Alpha  occ. eigenvalues --  -10.57949 -10.56466 -10.55975  -1.39653  -1.39583
 Alpha  occ. eigenvalues --   -1.24558  -1.23013  -1.14674  -1.00017  -0.90209
 Alpha  occ. eigenvalues --   -0.88054  -0.83458  -0.76378  -0.73908  -0.71262
 Alpha  occ. eigenvalues --   -0.66919  -0.64632  -0.61399  -0.60473  -0.60017
 Alpha  occ. eigenvalues --   -0.59916  -0.58298  -0.57877  -0.57846  -0.55072
 Alpha  occ. eigenvalues --   -0.54039  -0.53885  -0.51587  -0.49086  -0.47145
 Alpha  occ. eigenvalues --   -0.47075  -0.46061  -0.43671  -0.41570  -0.40022
 Alpha  occ. eigenvalues --   -0.36456  -0.32533  -0.31121
 Alpha virt. eigenvalues --   -0.02256  -0.01276   0.00006   0.00552   0.00617
 Alpha virt. eigenvalues --    0.01110   0.01200   0.02783   0.03464   0.03716
 Alpha virt. eigenvalues --    0.03990   0.05197   0.05673   0.06483   0.06580

 Mulliken charges:
               1
     1  C    1.061783
     2  C    0.718047
     3  C   -0.787671
     4  C    1.204990
     5  C   -0.416192
     6  C    0.435248
     7  F   -0.583098
     8  F   -0.553114
     9  O   -0.759255
    10  C   -1.018262
    11  C    0.269508
    12  O   -0.900117
    13  O   -0.505662
    14  H    0.341574
    15  H    0.177510
    16  H    0.299105
    17  H    0.362764
    18  H    0.362746
    19  H    0.290095
 Sum of Mulliken charges =   0.00000

 Dipole moment (field-independent basis, Debye):
    X=              3.7995    Y=             -0.4897    Z=             -0.0013  Tot=              3.8310
 Quadrupole moment (field-independent basis, Debye-Ang):
   XX=            -58.3373   YY=            -79.6330   ZZ=            -73.0327
   XY=              9.1950   XZ=              0.0049   YZ=             -0.0045

  Exact polarizability:     155.271      -0.911     108.760      -0.001       0.003      63.352
 Approx polarizability:     168.230      -4.631     149.116      -0.003       0.008      85.307

 Summary of Natural Population Analysis:

                                       Natural Population
                Natural  -----------------------------------------------
    Atom  No    Charge         Core      Valence    Rydberg      Total
 -----------------------------------------------------------------------
      C    1   -0.34875      1.99881     4.32178    0.02817     6.34875
      C    2    0.48707      1.99863     3.48391    0.03039     5.51293
      C    3   -0.34211      1.99904     4.32348    0.01960     6.34211
      C    4    0.37626      1.99896     3.59672    0.02806     5.62374
      C    5   -0.40150      1.99905     4.38262    0.01984     6.40150
      C    6    0.53107      1.99864     3.44087    0.02942     5.46893
      F    7   -0.31202      1.99993     7.30249    0.00959     9.31202
      F    8   -0.31660      1.99993     7.30703    0.00964     9.31660
      O    9   -0.50474      1.99973     6.47721    0.02779     8.50474
      C   10   -0.22032      1.99936     4.20775    0.01320     6.22032
      C   11    0.80298      1.99945     3.16280    0.03478     5.19702
      O   12   -0.58943      1.99977     6.55668    0.03298     8.58943
      O   13   -0.68764      1.99978     6.66113    0.02673     8.68764
      H   14    0.24169      0.00000     0.75355    0.00476     0.75831
      H   15    0.23639      0.00000     0.75861    0.00500     0.76361
      H   16    0.19723      0.00000     0.79867    0.00409     0.80277
      H   17    0.17694      0.00000     0.82043    0.00263     0.82306
      H   18    0.17695      0.00000     0.82042    0.00263     0.82305
      H   19    0.49658      0.00000     0.50016    0.00326     0.50342
 =======================================================================
   * Total *    0.00005     25.99108    69.67632    0.33255    95.99995

 ******    1 imaginary frequencies (negative Signs) ******

                      1                      2                      3
                      A                      A                      A
 Frequencies --    -45.8235                64.2027               107.6026
 Red. masses --     11.7068                 5.8300                 4.3421
 Frc consts  --      0.0145                 0.0142                 0.0296
 IR Inten    --      1.8599                 0.9686                 1.6130

                      4                      5                      6
                      A                      A                      A
 Frequencies --    191.6980               204.6512               245.4753
 Red. masses --      5.0501                 3.5707                 3.5909
 Frc consts  --      0.1093                 0.0881                 0.1275
 IR Inten    --      3.3382                 1.2198                 0.2500

                      7                      8                      9
                      A                      A                      A
 Frequencies --    256.6090               268.2066               312.4829
 Red. masses --      6.0134                 1.8791                 2.9134
 Frc consts  --      0.2333                 0.0796                 0.1676
 IR Inten    --      0.9678                 0.2800                 2.6048

                     10                     11                     12
                      A                      A                      A
 Frequencies --    325.8270               348.7326               385.6008
 Red. masses --      9.7408                11.8248                11.7808
 Frc consts  --      0.6093                 0.8473                 1.0321
 IR Inten    --      0.8007                 2.3620                 0.0540

                     13                     14                     15
                      A                      A                      A
 Frequencies --    444.8482               537.9761               585.8360
 Red. masses --      6.0306                 7.7455                 7.8720
 Frc consts  --      0.7031                 1.3208                 1.5918
 IR Inten    --      2.3907                 8.3727                36.6146

                     16                     17                     18
                      A                      A                      A
 Frequencies --    591.4273               605.3929               630.1526
 Red. masses --      1.2715                 6.5866                 3.8017
 Frc consts  --      0.2620                 1.4223                 0.8894
 IR Inten    --     70.8217                35.9021                 0.4631

                     19                     20                     21
                      A                      A                      A
 Frequencies --    670.1628               677.0349               717.5960
 Red. masses --      3.4370                 4.5736                 3.2607
 Frc consts  --      0.9095                 1.2352                 0.9893
 IR Inten    --      0.0217                22.7440                44.2112

                     22                     23                     24
                      A                      A                      A
 Frequencies --    762.1081               828.0194               865.3255
 Red. masses --      4.0924                 6.0865                 1.7313
 Frc consts  --      1.4004                 2.4587                 0.7638
 IR Inten    --     26.2521                 8.7311                28.4729

                     25                     26                     27
                      A                      A                      A
 Frequencies --    883.5513              1008.4391              1084.3139
 Red. masses --      1.6800                 4.4419                 2.9648
 Frc consts  --      0.7727                 2.6614                 2.0538
 IR Inten    --     41.9125                 4.9932                15.4241

                     28                     29                     30
                      A                      A                      A
 Frequencies --   1100.3577              1145.2376              1185.8060
 Red. masses --      6.9308                 3.8843                 1.2762
 Frc consts  --      4.9442                 3.0016                 1.0573
 IR Inten    --    149.2709                56.2912                 1.1945

                     31                     32                     33
                      A                      A                      A
 Frequencies --   1205.9876              1214.5943              1229.2166
 Red. masses --      1.6209                 1.8939                 1.8468
 Frc consts  --      1.3890                 1.6462                 1.6441
 IR Inten    --    128.0557                16.0859               301.4115

                     34                     35                     36
                      A                      A                      A
 Frequencies --   1249.6721              1341.6591              1393.4605
 Red. masses --      2.1690                 6.2562                 3.2278
 Frc consts  --      1.9957                 6.6351                 3.6927
 IR Inten    --    162.2501                10.6479               337.7581

                     37                     38                     39
                      A                      A                      A
 Frequencies --   1423.4197              1487.1000              1503.6418
 Red. masses --      5.0016                 1.4564                 2.6783
 Frc consts  --      5.9707                 1.8977                 3.5678
 IR Inten    --     13.7163                 2.0579                68.5311

                     40                     41                     42
                      A                      A                      A
 Frequencies --   1510.9460              1518.7489              1552.1281
 Red. masses --      1.0431                 1.2906                 4.2577
 Frc consts  --      1.4031                 1.7539                 6.0433
 IR Inten    --      9.6046                63.3849                23.4808

                     43                     44                     45
                      A                      A                      A
 Frequencies --   1645.0482              1702.3921              1843.2918
 Red. masses --      9.1358                 8.3770                10.3592
 Frc consts  --     14.5664                14.3039                20.7379
 IR Inten    --    142.8671               608.7613               487.2891

                     46                     47                     48
                      A                      A                      A
 Frequencies --   3053.4417              3119.7118              3181.5394
 Red. masses --      1.0342                 1.1066                 1.1013
 Frc consts  --      5.6813                 6.3454                 6.5677
 IR Inten    --     31.5414                18.6679                10.6702

                     49                     50                     51
                      A                      A                      A
 Frequencies --   3247.5384              3260.9344              3812.6604
 Red. masses --      1.0931                 1.0917                 1.0644
 Frc consts  --      6.7922                 6.8399                 9.1158
 IR Inten    --      2.1796                 1.0813               129.9926

 - Thermochemistry -
 -------------------
 Temperature   298.150 Kelvin.  Pressure   1.00000 Atm.
 Atom     1 has atomic number  6 and mass  12.00000

 Molecular mass:   188.02850 amu.
 Principal axes and moments of inertia in atomic units:
                           1         2         3
     Eigenvalues --  1223.109583286.496894498.14441
           X            0.99987   0.01598   0.00000
           Y           -0.01598   0.99987   0.00000
           Z            0.00000   0.00000   1.00000
 This molecule is an asymmetric top.
 Rotational symmetry number  1.
 Warning -- assumption of classical behavior for rotation
           may cause significant error
 Rotational temperatures (Kelvin)      0.07081     0.02635     0.01926
 Rotational constants (GHZ):           1.47554     0.54914     0.40122
    1 imaginary frequencies ignored.
 Zero-point vibrational energy     350098.0 (Joules/Mol)
                                   83.67542 (Kcal/Mol)
 Warning -- explicit consideration of  16 degrees of freedom as
           vibrations may cause significant error
 Vibrational temperatures:     92.37   154.82   275.81   294.45   353.18
          (Kelvin)            369.20   385.89   449.59   468.79   501.75
                              554.79   640.04   774.03   842.89   850.93
                              871.03   906.65   964.21   974.10  1032.46
                             1096.50  1191.34  1245.01  1271.23  1450.92
                             1560.09  1583.17  1647.74  1706.11  1735.15
                             1747.53  1768.57  1798.00  1930.35  2004.88
                             2047.98  2139.61  2163.41  2173.91  2185.14
                             2233.17  2366.86  2449.36  2652.09  4393.22
                             4488.57  4577.53  4672.48  4691.76  5485.57

 Zero-point correction=                           0.133345 (Hartree/Particle)
 Thermal correction to Energy=                    0.143714
 Thermal correction to Enthalpy=                  0.144658
 Thermal correction to Gibbs Free Energy=         0.097081
 Sum of electronic and zero-point Energies=           -733.703499
 Sum of electronic and thermal Energies=              -733.693130
 Sum of electronic and thermal Enthalpies=            -733.692186
 Sum of electronic and thermal Free Energies=         -733.739763

                     E (Thermal)             CV                S
                      KCal/Mol        Cal/Mol-Kelvin    Cal/Mol-Kelvin
 Total                   90.182             39.708            100.134
 Electronic               0.000              0.000              0.000
 Translational            0.889              2.981             41.600
 Rotational               0.889              2.981             31.270
 Vibrational             88.405             33.746             27.264
 Vibration     1          0.597              1.971              4.324
 Vibration     2          0.606              1.943              3.312
 Vibration     3          0.634              1.851              2.211
 Vibration     4          0.640              1.833              2.091
 Vibration     5          0.660              1.770              1.763
 Vibration     6          0.666              1.752              1.685
 Vibration     7          0.673              1.732              1.608
 Vibration     8          0.701              1.650              1.349
 Vibration     9          0.710              1.624              1.281
 Vibration    10          0.726              1.578              1.172
 Vibration    11          0.754              1.501              1.017
 Vibration    12          0.804              1.372              0.812
 Vibration    13          0.893              1.166              0.570
 Vibration    14          0.943              1.062              0.475
 Vibration    15          0.949              1.050              0.465
 Vibration    16          0.964              1.020              0.440

                           ! Non-Optimized Parameters !
 Normal termination of Gaussian 16 at Tue Mar  4 21:15:09 2025.
