 Gaussian 16, Revision C.01,
 Gaussian 16:  ES64L-G16RevC.01  3-Jul-2019

 ------------------------------------
 # opt freq m062x/aug-cc-pvtz pop=nbo
 ------------------------------------

 --
 26
 --
 Symbolic Z-matrix:
 Charge =  0 Multiplicity = 1

 SCF Done:  E(RM062X) =  -845.904817474     A.U. after   14 cycles
 SCF Done:  E(RM062X) =  -845.946779374     A.U. after   13 cycles
 SCF Done:  E(RM062X) =  -845.927903918     A.U. after   15 cycles
 SCF Done:  E(RM062X) =  -845.959216594     A.U. after   13 cycles
 SCF Done:  E(RM062X) =  -845.962187770     A.U. after   12 cycles
 SCF Done:  E(RM062X) =  -845.963251986     A.U. after   13 cycles
 SCF Done:  E(RM062X) =  -845.963831838     A.U. after   13 cycles
 SCF Done:  E(RM062X) =  -845.964386316     A.U. after   12 cycles
 SCF Done:  E(RM062X) =  -845.964589459     A.U. after   11 cycles
 SCF Done:  E(RM062X) =  -845.964615176     A.U. after   10 cycles
 SCF Done:  E(RM062X) =  -845.964625144     A.U. after   10 cycles
 SCF Done:  E(RM062X) =  -845.964627666     A.U. after    9 cycles
 SCF Done:  E(RM062X) =  -845.964628067     A.U. after    8 cycles
 SCF Done:  E(RM062X) =  -845.964628282     A.U. after    8 cycles
 Optimization completed.
    -- Stationary point found.
 Normal termination of Gaussian 16 at Wed Mar  5 02:40:49 2025.

 ----------------------------------------------------------------------
 #N Geom=AllCheck Guess=TCheck SCRF=Check GenChk RM062X/Aug-CC-pVTZ Fre
 q
 ----------------------------------------------------------------------

 Structure from the checkpoint file:  "26.chk"
 --
 26
 --
 Charge =  0 Multiplicity = 1

                         Standard orientation:
 ---------------------------------------------------------------------
 Center     Atomic      Atomic             Coordinates (Angstroms)
 Number     Number       Type             X           Y           Z
 ---------------------------------------------------------------------
      1          6           0       -0.163775    1.012484    0.007441
      2          6           0        0.196232   -0.354689   -0.127761
      3          6           0       -0.827623   -1.306713   -0.172320
      4          6           0       -2.160274   -0.940556   -0.035051
      5          6           0       -2.524750    0.387006    0.159776
      6          6           0       -1.504166    1.316195    0.170392
      7          9           0       -1.856970    2.601519    0.284334
      8          7           0        1.504801   -0.754514   -0.186849
      9          6           0        1.841462   -2.169686   -0.315302
     10          6           0        3.355000   -2.193224   -0.155882
     11          6           0        3.581584   -1.090716    0.876137
     12          6           0        2.616578   -0.004350    0.409435
     13          8           0       -3.052185   -1.955486   -0.085719
     14          6           0       -4.420088   -1.639188    0.068905
     15          6           0        0.770295    2.155613   -0.157916
     16          8           0        0.905465    3.076739    0.597995
     17          8           0        1.447247    2.086674   -1.325877
     18          1           0       -0.615225   -2.356525   -0.288935
     19          1           0       -3.541653    0.723995    0.271306
     20          1           0        1.499405   -2.563668   -1.272868
     21          1           0        1.367906   -2.755196    0.482205
     22          1           0        3.721955   -3.167345    0.158513
     23          1           0        3.835532   -1.929559   -1.098895
     24          1           0        4.609266   -0.737879    0.920602
     25          1           0        3.296350   -1.447278    1.866815
     26          1           0        2.259584    0.624153    1.226585
     27          1           0        3.095510    0.635921   -0.332251
     28          1           0       -4.957498   -2.579921    0.002122
     29          1           0       -4.609112   -1.179409    1.041031
     30          1           0       -4.759887   -0.968471   -0.722768
     31          1           0        2.009928    2.872630   -1.362837
 ---------------------------------------------------------------------

 SCF Done:  E(RM062X) =  -845.964628282     A.U. after    1 cycles

 The electronic state is 1-A.
 Alpha  occ. eigenvalues --  -25.25501 -19.67068 -19.66555 -19.61569 -14.77220
 Alpha  occ. eigenvalues --  -10.68083 -10.63823 -10.61705 -10.60435 -10.59629
 Alpha  occ. eigenvalues --  -10.57722 -10.57535 -10.55334 -10.54812 -10.54725
 Alpha  occ. eigenvalues --  -10.53844 -10.53324  -1.37624  -1.23924  -1.20628
 Alpha  occ. eigenvalues --   -1.14213  -1.08083  -0.97351  -0.91029  -0.87970
 Alpha  occ. eigenvalues --   -0.84413  -0.84067  -0.80831  -0.74549  -0.73424
 Alpha  occ. eigenvalues --   -0.69917  -0.68052  -0.67160  -0.63813  -0.60664
 Alpha  occ. eigenvalues --   -0.59835  -0.58944  -0.58291  -0.57715  -0.57314
 Alpha  occ. eigenvalues --   -0.56780  -0.55891  -0.53149  -0.52667  -0.51558
 Alpha  occ. eigenvalues --   -0.50845  -0.50009  -0.48728  -0.47922  -0.46895
 Alpha  occ. eigenvalues --   -0.45255  -0.44738  -0.44026  -0.42257  -0.41786
 Alpha  occ. eigenvalues --   -0.41350  -0.41003  -0.40289  -0.39441  -0.36046
 Alpha  occ. eigenvalues --   -0.34725  -0.28779  -0.25817
 Alpha virt. eigenvalues --   -0.01181  -0.00428  -0.00023   0.00376   0.00760
 Alpha virt. eigenvalues --    0.01263   0.01539   0.01830   0.01958   0.02765
 Alpha virt. eigenvalues --    0.02897   0.03261   0.03425   0.03870   0.04213

 Mulliken charges:
               1
     1  C    1.202102
     2  C    0.444345
     3  C   -0.704863
     4  C    1.137421
     5  C   -0.279290
     6  C    0.131807
     7  F   -0.618802
     8  N    0.315746
     9  C   -0.926933
    10  C   -0.553806
    11  C   -0.477104
    12  C   -0.762994
    13  O   -0.797452
    14  C   -1.060176
    15  C    0.925339
    16  O   -0.917682
    17  O   -0.595337
    18  H    0.210224
    19  H    0.009429
    20  H    0.295422
    21  H    0.312821
    22  H    0.276405
    23  H    0.137042
    24  H    0.276715
    25  H    0.083928
    26  H    0.334756
    27  H    0.343124
    28  H    0.254451
    29  H    0.380704
    30  H    0.373710
    31  H    0.248949
 Sum of Mulliken charges =   0.00000

 Dipole moment (field-independent basis, Debye):
    X=              1.0140    Y=             -3.5050    Z=             -0.6987  Tot=              3.7151
 Quadrupole moment (field-independent basis, Debye-Ang):
   XX=            -76.5977   YY=           -105.7337   ZZ=           -101.9708
   XY=              1.7363   XZ=             -1.8259   YZ=             -6.2279

  Exact polarizability:     213.657       4.640     170.112      -2.504       5.191     109.973
 Approx polarizability:     228.999       5.475     212.341      -6.256      10.724     152.099

 Summary of Natural Population Analysis:

                                       Natural Population
                Natural  -----------------------------------------------
    Atom  No    Charge         Core      Valence    Rydberg      Total
 -----------------------------------------------------------------------
      C    1   -0.32060      1.99881     4.29181    0.02998     6.32060
      C    2    0.26481      1.99908     3.71122    0.02489     5.73519
      C    3   -0.34229      1.99908     4.32347    0.01974     6.34229
      C    4    0.37093      1.99892     3.60257    0.02758     5.62907
      C    5   -0.42624      1.99903     4.40739    0.01981     6.42624
      C    6    0.52064      1.99856     3.45213    0.02868     5.47936
      F    7   -0.33306      1.99993     7.32380    0.00932     9.33306
      N    8   -0.47495      1.99940     5.44705    0.02850     7.47495
      C    9   -0.18160      1.99945     4.16490    0.01726     6.18160
      C   10   -0.39357      1.99949     4.37981    0.01428     6.39357
      C   11   -0.39287      1.99949     4.37932    0.01406     6.39287
      C   12   -0.18554      1.99942     4.16956    0.01656     6.18554
      O   13   -0.51609      1.99974     6.48890    0.02745     8.51609
      C   14   -0.21722      1.99936     4.20458    0.01329     6.21722
      C   15    0.81597      1.99944     3.14721    0.03739     5.18403
      O   16   -0.58860      1.99976     6.55691    0.03193     8.58860
      O   17   -0.70059      1.99978     6.67434    0.02647     8.70059
      H   18    0.22585      0.00000     0.76894    0.00522     0.77415
      H   19    0.23286      0.00000     0.76256    0.00459     0.76714
      H   20    0.20319      0.00000     0.79434    0.00248     0.79681
      H   21    0.18173      0.00000     0.81512    0.00314     0.81827
      H   22    0.21174      0.00000     0.78559    0.00267     0.78826
      H   23    0.20031      0.00000     0.79666    0.00303     0.79969
      H   24    0.21198      0.00000     0.78536    0.00267     0.78802
      H   25    0.19844      0.00000     0.79864    0.00292     0.80156
      H   26    0.20876      0.00000     0.78798    0.00326     0.79124
      H   27    0.19475      0.00000     0.80178    0.00347     0.80525
      H   28    0.19173      0.00000     0.80409    0.00418     0.80827
      H   29    0.17387      0.00000     0.82347    0.00267     0.82613
      H   30    0.17357      0.00000     0.82376    0.00267     0.82643
      H   31    0.49214      0.00000     0.50485    0.00301     0.50786
 =======================================================================
   * Total *    0.00002     33.98874    91.57808    0.43316   125.99998

                      1                      2                      3
                      A                      A                      A
 Frequencies --     54.5807                63.6738                72.0435
 Red. masses --      6.6361                 3.5322                 3.1220
 Frc consts  --      0.0116                 0.0084                 0.0095
 IR Inten    --      1.7728                 2.3715                 0.8814

                      4                      5                      6
                      A                      A                      A
 Frequencies --     83.0328               114.6339               154.7349
 Red. masses --      6.5771                 3.7448                 4.6367
 Frc consts  --      0.0267                 0.0290                 0.0654
 IR Inten    --      1.4769                 1.9987                 1.4103

                      7                      8                      9
                      A                      A                      A
 Frequencies --    169.3570               177.0837               216.8863
 Red. masses --      3.1828                 4.8734                 2.5559
 Frc consts  --      0.0538                 0.0900                 0.0708
 IR Inten    --      1.8639                 0.5058                 0.9564

                     10                     11                     12
                      A                      A                      A
 Frequencies --    244.8945               251.5184               261.0715
 Red. masses --      3.8108                 5.0067                 4.2225
 Frc consts  --      0.1347                 0.1866                 0.1696
 IR Inten    --      0.2385                 2.6977                 8.2915

                     13                     14                     15
                      A                      A                      A
 Frequencies --    288.6391               292.8394               314.9000
 Red. masses --      1.6223                 1.7894                 6.6025
 Frc consts  --      0.0796                 0.0904                 0.3858
 IR Inten    --      0.7961                 1.3875                 0.7289

                     16                     17                     18
                      A                      A                      A
 Frequencies --    336.9993               365.9842               452.6840
 Red. masses --      4.4966                 5.0854                 5.9437
 Frc consts  --      0.3009                 0.4013                 0.7176
 IR Inten    --      3.4302                 2.7896                 1.6934

                     19                     20                     21
                      A                      A                      A
 Frequencies --    514.6507               537.1108               580.1643
 Red. masses --      5.4319                 8.5946                 1.7765
 Frc consts  --      0.8477                 1.4608                 0.3523
 IR Inten    --      6.0083                 3.5584                19.6331

                     22                     23                     24
                      A                      A                      A
 Frequencies --    583.8168               604.5930               632.1032
 Red. masses --      1.4753                 5.1881                 3.1882
 Frc consts  --      0.2963                 1.1173                 0.7505
 IR Inten    --     46.2402                37.0476                 7.3016

                     25                     26                     27
                      A                      A                      A
 Frequencies --    657.6667               665.0455               705.2939
 Red. masses --      3.4060                 2.7818                 3.4290
 Frc consts  --      0.8680                 0.7249                 1.0050
 IR Inten    --     30.9043                 5.8657                10.0912

                     28                     29                     30
                      A                      A                      A
 Frequencies --    743.4412               774.5429               813.9863
 Red. masses --      3.4799                 4.1473                 3.4739
 Frc consts  --      1.1332                 1.4659                 1.3561
 IR Inten    --     34.4616                 6.3368                 4.9008

                     31                     32                     33
                      A                      A                      A
 Frequencies --    832.6708               854.8309               861.3279
 Red. masses --      1.9980                 2.2745                 2.1289
 Frc consts  --      0.8162                 0.9793                 0.9306
 IR Inten    --      9.6786                30.5767                22.5245

                     34                     35                     36
                      A                      A                      A
 Frequencies --    897.1435               912.8992               946.9645
 Red. masses --      1.9314                 2.4132                 2.4160
 Frc consts  --      0.9159                 1.1849                 1.2765
 IR Inten    --      1.0435                 5.5108                 1.8836

                     37                     38                     39
                      A                      A                      A
 Frequencies --    957.7990               997.0219              1018.8281
 Red. masses --      1.3959                 1.6009                 4.5133
 Frc consts  --      0.7545                 0.9376                 2.7602
 IR Inten    --      0.9521                 3.0998                14.8868

                     40                     41                     42
                      A                      A                      A
 Frequencies --   1053.8292              1093.7864              1121.8623
 Red. masses --      1.7550                 4.7679                 3.4753
 Frc consts  --      1.1483                 3.3608                 2.5770
 IR Inten    --      3.5793                80.4551                37.5959

                     43                     44                     45
                      A                      A                      A
 Frequencies --   1141.6096              1157.7118              1184.9273
 Red. masses --      1.9997                 1.9322                 1.2851
 Frc consts  --      1.5355                 1.5258                 1.0631
 IR Inten    --     48.1044                19.2331                 3.4509

                     46                     47                     48
                      A                      A                      A
 Frequencies --   1186.4400              1201.4720              1212.2682
 Red. masses --      1.5812                 1.6495                 1.4706
 Frc consts  --      1.3114                 1.4029                 1.2733
 IR Inten    --     46.4290                81.6981                24.8380

                     49                     50                     51
                      A                      A                      A
 Frequencies --   1223.7511              1228.1972              1243.1886
 Red. masses --      1.7901                 3.2347                 1.8258
 Frc consts  --      1.5795                 2.8749                 1.6625
 IR Inten    --    126.1318                36.3759                62.6319

                     52                     53                     54
                      A                      A                      A
 Frequencies --   1263.4115              1282.7088              1298.2075
 Red. masses --      1.5619                 1.6795                 1.5777
 Frc consts  --      1.4689                 1.6281                 1.5666
 IR Inten    --    132.8183                43.5357                84.7481

                     55                     56                     57
                      A                      A                      A
 Frequencies --   1327.0017              1351.2824              1352.7766
 Red. masses --      1.3913                 2.4181                 1.5050
 Frc consts  --      1.4435                 2.6015                 1.6227
 IR Inten    --      2.3763               150.0047                14.3549

                     58                     59                     60
                      A                      A                      A
 Frequencies --   1369.0552              1385.2966              1398.9263
 Red. masses --      2.9636                 1.6011                 1.5467
 Frc consts  --      3.2728                 1.8103                 1.7834
 IR Inten    --     35.5820                10.9740                94.0520

                     61                     62                     63
                      A                      A                      A
 Frequencies --   1437.0688              1488.4029              1494.0437
 Red. masses --      3.6785                 1.4535                 1.0984
 Frc consts  --      4.4758                 1.8972                 1.4446
 IR Inten    --      7.8719                 4.9699                 5.6303

                     64                     65                     66
                      A                      A                      A
 Frequencies --   1500.0445              1508.2918              1513.0706
 Red. masses --      1.2017                 1.0438                 2.5456
 Frc consts  --      1.5932                 1.3990                 3.4337
 IR Inten    --     81.3490                 8.5491               121.2710

                     67                     68                     69
                      A                      A                      A
 Frequencies --   1519.0697              1527.5320              1536.3794
 Red. masses --      1.2492                 1.1706                 1.5378
 Frc consts  --      1.6984                 1.6094                 2.1386
 IR Inten    --     98.8538                34.8808                57.6077

                     70                     71                     72
                      A                      A                      A
 Frequencies --   1545.6343              1635.3059              1687.8371
 Red. masses --      1.8576                 7.4703                 8.6275
 Frc consts  --      2.6146                11.7703                14.4810
 IR Inten    --     55.4079               246.3240               633.5276

                     73                     74                     75
                      A                      A                      A
 Frequencies --   1851.8431              3007.8741              3047.2186
 Red. masses --     10.4337                 1.0702                 1.0344
 Frc consts  --     21.0813                 5.7048                 5.6592
 IR Inten    --    445.7512                35.8132                41.8663

                     76                     77                     78
                      A                      A                      A
 Frequencies --   3065.7179              3076.5730              3082.7197
 Red. masses --      1.0578                 1.0696                 1.0667
 Frc consts  --      5.8576                 5.9649                 5.9727
 IR Inten    --     31.9509                15.7587                 7.9129

                     79                     80                     81
                      A                      A                      A
 Frequencies --   3096.4986              3108.7919              3110.1483
 Red. masses --      1.0893                 1.1047                 1.1060
 Frc consts  --      6.1536                 6.2902                 6.3036
 IR Inten    --     31.4951                13.0397                22.9577

                     82                     83                     84
                      A                      A                      A
 Frequencies --   3142.2798              3148.4150              3172.8384
 Red. masses --      1.0994                 1.1052                 1.1007
 Frc consts  --      6.3957                 6.4545                 6.5287
 IR Inten    --     25.6094                26.4343                15.0580

                     85                     86                     87
                      A                      A                      A
 Frequencies --   3261.9903              3267.7959              3798.9927
 Red. masses --      1.0898                 1.0918                 1.0641
 Frc consts  --      6.8324                 6.8689                 9.0486
 IR Inten    --      0.3654                 1.1915                99.3200

 - Thermochemistry -
 -------------------
 Temperature   298.150 Kelvin.  Pressure   1.00000 Atm.
 Atom     1 has atomic number  6 and mass  12.00000

 Molecular mass:   239.09577 amu.
 Principal axes and moments of inertia in atomic units:
                           1         2         3
     Eigenvalues --  2926.922484798.738957275.76613
           X            1.00000   0.00035   0.00238
           Y           -0.00034   0.99999  -0.00520
           Z           -0.00238   0.00520   0.99998
 This molecule is an asymmetric top.
 Rotational symmetry number  1.
 Warning -- assumption of classical behavior for rotation
           may cause significant error
 Rotational temperatures (Kelvin)      0.02959     0.01805     0.01190
 Rotational constants (GHZ):           0.61660     0.37609     0.24805
 Zero-point vibrational energy     662238.0 (Joules/Mol)
                                  158.27868 (Kcal/Mol)
 Warning -- explicit consideration of  23 degrees of freedom as
           vibrations may cause significant error
 Vibrational temperatures:     78.53    91.61   103.65   119.47   164.93
          (Kelvin)            222.63   243.67   254.78   312.05   352.35
                              361.88   375.62   415.29   421.33   453.07
                              484.87   526.57   651.31   740.47   772.78
                              834.73   839.98   869.87   909.46   946.24
                              956.85  1014.76  1069.65  1114.39  1171.14
                             1198.03  1229.91  1239.26  1290.79  1313.46
                             1362.47  1378.06  1434.49  1465.87  1516.23
                             1573.71  1614.11  1642.52  1665.69  1704.85
                             1707.02  1728.65  1744.18  1760.70  1767.10
                             1788.67  1817.77  1845.53  1867.83  1909.26
                             1944.19  1946.34  1969.77  1993.13  2012.74
                             2067.62  2141.48  2149.60  2158.23  2170.10
                             2176.97  2185.60  2197.78  2210.51  2223.82
                             2352.84  2428.42  2664.39  4327.66  4384.27
                             4410.88  4426.50  4435.35  4455.17  4472.86
                             4474.81  4521.04  4529.87  4565.01  4693.28
                             4701.63  5465.90

 Zero-point correction=                           0.252233 (Hartree/Particle)
 Thermal correction to Energy=                    0.267550
 Thermal correction to Enthalpy=                  0.268494
 Thermal correction to Gibbs Free Energy=         0.209517
 Sum of electronic and zero-point Energies=           -845.712395
 Sum of electronic and thermal Energies=              -845.697078
 Sum of electronic and thermal Enthalpies=            -845.696134
 Sum of electronic and thermal Free Energies=         -845.755111

                     E (Thermal)             CV                S
                      KCal/Mol        Cal/Mol-Kelvin    Cal/Mol-Kelvin
 Total                  167.890             58.326            124.127
 Electronic               0.000              0.000              0.000
 Translational            0.889              2.981             42.316
 Rotational               0.889              2.981             32.991
 Vibrational            166.113             52.364             48.820
 Vibration     1          0.596              1.976              4.644
 Vibration     2          0.597              1.972              4.340
 Vibration     3          0.598              1.967              4.097
 Vibration     4          0.600              1.961              3.818
 Vibration     5          0.608              1.937              3.189
 Vibration     6          0.620              1.897              2.613
 Vibration     7          0.625              1.880              2.443
 Vibration     8          0.628              1.871              2.359
 Vibration     9          0.646              1.815              1.985
 Vibration    10          0.660              1.771              1.767
 Vibration    11          0.663              1.760              1.720
 Vibration    12          0.669              1.744              1.655
 Vibration    13          0.685              1.695              1.482
 Vibration    14          0.688              1.687              1.457
 Vibration    15          0.702              1.645              1.336
 Vibration    16          0.718              1.602              1.226
 Vibration    17          0.739              1.542              1.097
 Vibration    18          0.811              1.355              0.788
 Vibration    19          0.870              1.218              0.622
 Vibration    20          0.892              1.168              0.572
 Vibration    21          0.937              1.074              0.485
 Vibration    22          0.941              1.066              0.478
 Vibration    23          0.963              1.022              0.442

                           ! Non-Optimized Parameters !
 Normal termination of Gaussian 16 at Wed Mar  5 07:08:52 2025.
