 Gaussian 16, Revision C.01,
 Gaussian 16:  ES64L-G16RevC.01  3-Jul-2019

 ------------------------------------
 # opt freq m062x/aug-cc-pvtz pop=nbo
 ------------------------------------

 -
 3
 -
 Symbolic Z-matrix:
 Charge =  0 Multiplicity = 1

 SCF Done:  E(RM062X) =  -470.087034972     A.U. after   13 cycles
 SCF Done:  E(RM062X) =  -470.133256712     A.U. after   12 cycles
 SCF Done:  E(RM062X) =  -470.140719636     A.U. after   12 cycles
 SCF Done:  E(RM062X) =  -470.141259612     A.U. after   10 cycles
 SCF Done:  E(RM062X) =  -470.141359789     A.U. after   10 cycles
 SCF Done:  E(RM062X) =  -470.141383138     A.U. after    9 cycles
 SCF Done:  E(RM062X) =  -470.141384822     A.U. after    8 cycles
 SCF Done:  E(RM062X) =  -470.141385005     A.U. after    8 cycles
 Optimization completed.
    -- Stationary point found.
 Normal termination of Gaussian 16 at Tue Mar  4 17:37:07 2025.

 ----------------------------------------------------------------------
 #N Geom=AllCheck Guess=TCheck SCRF=Check GenChk RM062X/Aug-CC-pVTZ Fre
 q
 ----------------------------------------------------------------------

 Structure from the checkpoint file:  "3.chk"
 -
 3
 -
 Charge =  0 Multiplicity = 1

                         Standard orientation:
 ---------------------------------------------------------------------
 Center     Atomic      Atomic             Coordinates (Angstroms)
 Number     Number       Type             X           Y           Z
 ---------------------------------------------------------------------
      1          6           0        2.942378   -0.809516    0.000484
      2          7           0        1.675599   -0.109486   -0.000481
      3          6           0        1.433008    1.214974   -0.000388
      4          7           0        0.142885    1.443265   -0.000074
      5          6           0       -0.373479    0.192162    0.000215
      6          7           0        0.523317   -0.778103   -0.000074
      7          6           0       -1.835817   -0.064455    0.000672
      8          8           0       -2.668502    0.794344    0.000277
      9          8           0       -2.118591   -1.375784   -0.000481
     10          1           0        3.741070   -0.073058   -0.006644
     11          1           0        3.017201   -1.426601    0.892112
     12          1           0        3.011604   -1.437770   -0.883702
     13          1           0        2.219754    1.951398   -0.000764
     14          1           0       -3.082032   -1.451167   -0.000857
 ---------------------------------------------------------------------

 SCF Done:  E(RM062X) =  -470.141385005     A.U. after    1 cycles

 The electronic state is 1-A.
 Alpha  occ. eigenvalues --  -19.67502 -19.62088 -14.86357 -14.79975 -14.75943
 Alpha  occ. eigenvalues --  -10.68519 -10.62573 -10.61175 -10.60833  -1.24723
 Alpha  occ. eigenvalues --   -1.22730  -1.14940  -1.03766  -0.97083  -0.85331
 Alpha  occ. eigenvalues --   -0.78543  -0.71210  -0.68947  -0.63700  -0.59961
 Alpha  occ. eigenvalues --   -0.58259  -0.56978  -0.54556  -0.52891  -0.51517
 Alpha  occ. eigenvalues --   -0.50246  -0.48199  -0.42355  -0.40523  -0.37152
 Alpha  occ. eigenvalues --   -0.37151  -0.36561  -0.34299
 Alpha virt. eigenvalues --   -0.01557  -0.00795   0.00250   0.00656   0.00773
 Alpha virt. eigenvalues --    0.01958   0.03490   0.04012   0.04357   0.04713
 Alpha virt. eigenvalues --    0.05926   0.06094   0.06478   0.07825   0.07879

 Mulliken charges:
               1
     1  C   -0.777265
     2  N    0.949610
     3  C   -0.529251
     4  N   -0.495960
     5  C    0.628297
     6  N   -1.018486
     7  C    0.684316
     8  O   -0.854939
     9  O   -0.507386
    10  H    0.335233
    11  H    0.328899
    12  H    0.328790
    13  H    0.622496
    14  H    0.305645
 Sum of Mulliken charges =   0.00000

 Dipole moment (field-independent basis, Debye):
    X=              4.8923    Y=             -1.8928    Z=              0.0001  Tot=              5.2457
 Quadrupole moment (field-independent basis, Debye-Ang):
   XX=            -37.2917   YY=            -56.0819   ZZ=            -51.0004
   XY=              7.9090   XZ=              0.0011   YZ=             -0.0002

  Exact polarizability:     100.923      -2.758      76.049       0.004      -0.005      47.517
 Approx polarizability:     110.622      -5.715     101.101       0.002      -0.004      62.221

 Summary of Natural Population Analysis:

                                       Natural Population
                Natural  -----------------------------------------------
    Atom  No    Charge         Core      Valence    Rydberg      Total
 -----------------------------------------------------------------------
      C    1   -0.37110      1.99942     4.35744    0.01425     6.37110
      N    2   -0.19209      1.99947     5.16217    0.03046     7.19209
      C    3    0.19212      1.99939     3.78361    0.02489     5.80788
      N    4   -0.43950      1.99948     5.40218    0.03785     7.43950
      C    5    0.17677      1.99929     3.78588    0.03806     5.82323
      N    6   -0.23603      1.99943     5.20631    0.03028     7.23603
      C    7    0.77443      1.99942     3.19156    0.03459     5.22557
      O    8   -0.56788      1.99977     6.53527    0.03284     8.56788
      O    9   -0.68010      1.99977     6.65397    0.02636     8.68010
      H   10    0.20841      0.00000     0.78947    0.00213     0.79159
      H   11    0.21786      0.00000     0.77986    0.00228     0.78214
      H   12    0.21813      0.00000     0.77958    0.00229     0.78187
      H   13    0.20383      0.00000     0.79240    0.00377     0.79617
      H   14    0.49515      0.00000     0.50159    0.00326     0.50485
 =======================================================================
   * Total *    0.00000     17.99543    47.72127    0.28330    66.00000

                      1                      2                      3
                      A                      A                      A
 Frequencies --     51.6073                91.4893               154.7449
 Red. masses --      6.0591                 1.1233                 4.5314
 Frc consts  --      0.0095                 0.0055                 0.0639
 IR Inten    --      0.3870                 0.0002                 6.2850

                      4                      5                      6
                      A                      A                      A
 Frequencies --    175.7155               276.3845               357.1164
 Red. masses --      5.3780                 4.1741                 3.7180
 Frc consts  --      0.0978                 0.1879                 0.2794
 IR Inten    --      3.8288                 0.6336                 3.0509

                      7                      8                      9
                      A                      A                      A
 Frequencies --    416.7334               530.1156               575.9281
 Red. masses --      8.1338                 6.9410                 1.2622
 Frc consts  --      0.8323                 1.1493                 0.2467
 IR Inten    --      4.3418                 0.9098                60.4326

                     10                     11                     12
                      A                      A                      A
 Frequencies --    674.9802               701.7953               710.7402
 Red. masses --      3.7009                 4.3475                 5.2286
 Frc consts  --      0.9934                 1.2616                 1.5562
 IR Inten    --      7.5125                37.0071                70.4032

                     13                     14                     15
                      A                      A                      A
 Frequencies --    750.2171               838.8915               894.5329
 Red. masses --      4.4962                11.7051                 1.4213
 Frc consts  --      1.4910                 4.8533                 0.6701
 IR Inten    --     52.6421                 6.6017                10.4270

                     16                     17                     18
                      A                      A                      A
 Frequencies --   1034.3570              1081.8577              1084.3917
 Red. masses --      5.7426                 5.8184                 1.6426
 Frc consts  --      3.6199                 4.0123                 1.1380
 IR Inten    --      2.2272                28.0623                 3.7674

                     19                     20                     21
                      A                      A                      A
 Frequencies --   1157.1837              1180.9418              1238.4738
 Red. masses --      1.3311                 2.9106                 1.5013
 Frc consts  --      1.0501                 2.3916                 1.3567
 IR Inten    --      0.0350               331.4522                34.1690

                     22                     23                     24
                      A                      A                      A
 Frequencies --   1330.6574              1352.6218              1409.8844
 Red. masses --      2.3771                 4.7238                 6.5140
 Frc consts  --      2.4799                 5.0921                 7.6290
 IR Inten    --     62.7882                 9.6418                 0.3407

                     25                     26                     27
                      A                      A                      A
 Frequencies --   1457.3179              1482.8818              1484.1741
 Red. masses --      1.4036                 2.5110                 1.0401
 Frc consts  --      1.7563                 3.2531                 1.3499
 IR Inten    --      5.9354                 0.5672                10.0612

                     28                     29                     30
                      A                      A                      A
 Frequencies --   1525.5278              1538.2839              1568.5764
 Red. masses --      2.2725                 2.3193                 6.0105
 Frc consts  --      3.1159                 3.2336                 8.7131
 IR Inten    --     65.8564                 5.2440                54.2041

                     31                     32                     33
                      A                      A                      A
 Frequencies --   1877.9995              3090.9435              3169.1969
 Red. masses --     10.8047                 1.0316                 1.1065
 Frc consts  --     22.4520                 5.8070                 6.5480
 IR Inten    --    400.7615                19.4220                 2.7928

                     34                     35                     36
                      A                      A                      A
 Frequencies --   3182.3454              3274.7970              3816.5340
 Red. masses --      1.1056                 1.0999                 1.0645
 Frc consts  --      6.5967                 6.9496                 9.1353
 IR Inten    --      2.7041                 1.0634               117.7344

 - Thermochemistry -
 -------------------
 Temperature   298.150 Kelvin.  Pressure   1.00000 Atm.
 Atom     1 has atomic number  6 and mass  12.00000

 Molecular mass:   127.03818 amu.
 Principal axes and moments of inertia in atomic units:
                           1         2         3
     Eigenvalues --   413.869931598.819162001.33884
           X            1.00000  -0.00080   0.00001
           Y            0.00080   1.00000  -0.00002
           Z           -0.00001   0.00002   1.00000
 This molecule is an asymmetric top.
 Rotational symmetry number  1.
 Rotational temperatures (Kelvin)      0.20928     0.05417     0.04328
 Rotational constants (GHZ):           4.36065     1.12880     0.90177
 Zero-point vibrational energy     272389.3 (Joules/Mol)
                                   65.10261 (Kcal/Mol)
 Warning -- explicit consideration of   9 degrees of freedom as
           vibrations may cause significant error
 Vibrational temperatures:     74.25   131.63   222.64   252.82   397.66
          (Kelvin)            513.81   599.59   762.72   828.63   971.15
                             1009.73  1022.60  1079.40  1206.98  1287.03
                             1488.21  1556.55  1560.20  1664.93  1699.11
                             1781.89  1914.52  1946.12  2028.51  2096.76
                             2133.54  2135.40  2194.89  2213.25  2256.83
                             2702.02  4447.18  4559.77  4578.69  4711.70
                             5491.14

 Zero-point correction=                           0.103748 (Hartree/Particle)
 Thermal correction to Energy=                    0.111626
 Thermal correction to Enthalpy=                  0.112570
 Thermal correction to Gibbs Free Energy=         0.070220
 Sum of electronic and zero-point Energies=           -470.037637
 Sum of electronic and thermal Energies=              -470.029759
 Sum of electronic and thermal Enthalpies=            -470.028815
 Sum of electronic and thermal Free Energies=         -470.071165

                     E (Thermal)             CV                S
                      KCal/Mol        Cal/Mol-Kelvin    Cal/Mol-Kelvin
 Total                   70.046             27.369             89.133
 Electronic               0.000              0.000              0.000
 Translational            0.889              2.981             40.431
 Rotational               0.889              2.981             28.673
 Vibrational             68.269             21.407             20.029
 Vibration     1          0.596              1.977              4.755
 Vibration     2          0.602              1.955              3.628
 Vibration     3          0.620              1.897              2.613
 Vibration     4          0.628              1.872              2.373
 Vibration     5          0.678              1.717              1.556
 Vibration     6          0.732              1.561              1.135
 Vibration     7          0.780              1.434              0.903
 Vibration     8          0.885              1.183              0.587
 Vibration     9          0.932              1.083              0.493

                           ! Non-Optimized Parameters !
 Normal termination of Gaussian 16 at Tue Mar  4 18:02:31 2025.
