 Gaussian 16, Revision C.01,
 Gaussian 16:  ES64L-G16RevC.01  3-Jul-2019

 ------------------------------------
 # opt freq m062x/aug-cc-pvtz pop=nbo
 ------------------------------------

 -
 4
 -
 Symbolic Z-matrix:
 Charge =  0 Multiplicity = 1

 SCF Done:  E(RM062X) =  -454.038942406     A.U. after   14 cycles
 SCF Done:  E(RM062X) =  -454.081118003     A.U. after   12 cycles
 SCF Done:  E(RM062X) =  -454.088637879     A.U. after   12 cycles
 SCF Done:  E(RM062X) =  -454.089110919     A.U. after   10 cycles
 SCF Done:  E(RM062X) =  -454.089173884     A.U. after    9 cycles
 SCF Done:  E(RM062X) =  -454.089183348     A.U. after    9 cycles
 SCF Done:  E(RM062X) =  -454.089184502     A.U. after    8 cycles
 Optimization completed.
    -- Stationary point found.
 Normal termination of Gaussian 16 at Tue Mar  4 17:37:52 2025.

 ----------------------------------------------------------------------
 #N Geom=AllCheck Guess=TCheck SCRF=Check GenChk RM062X/Aug-CC-pVTZ Fre
 q
 ----------------------------------------------------------------------

 Structure from the checkpoint file:  "4.chk"
 -
 4
 -
 Charge =  0 Multiplicity = 1

                         Standard orientation:
 ---------------------------------------------------------------------
 Center     Atomic      Atomic             Coordinates (Angstroms)
 Number     Number       Type             X           Y           Z
 ---------------------------------------------------------------------
      1          6           0        2.977204   -0.782804    0.000886
      2          7           0        1.702867   -0.094864   -0.001088
      3          6           0        1.484701    1.241992   -0.000471
      4          6           0        0.124705    1.419853    0.000270
      5          6           0       -0.388784    0.110209    0.000278
      6          7           0        0.582424   -0.796585   -0.000537
      7          6           0       -1.799894   -0.319086    0.000628
      8          8           0       -2.197003   -1.448359   -0.000404
      9          8           0       -2.629443    0.747588    0.000271
     10          1           0        3.771015   -0.041702   -0.014428
     11          1           0        3.060600   -1.394301    0.896033
     12          1           0        3.048663   -1.418425   -0.878187
     13          1           0        2.303524    1.940255   -0.000786
     14          1           0       -0.427014    2.341648    0.000453
     15          1           0       -3.529846    0.397845   -0.000191
 ---------------------------------------------------------------------

 SCF Done:  E(RM062X) =  -454.089184502     A.U. after    1 cycles

 The electronic state is 1-A.
 Alpha  occ. eigenvalues --  -19.67090 -19.61351 -14.85060 -14.78493 -10.67774
 Alpha  occ. eigenvalues --  -10.59530 -10.58898 -10.57676 -10.54832  -1.23847
 Alpha  occ. eigenvalues --   -1.19575  -1.14186  -0.96685  -0.90497  -0.83290
 Alpha  occ. eigenvalues --   -0.75038  -0.70331  -0.64524  -0.62802  -0.57976
 Alpha  occ. eigenvalues --   -0.57480  -0.55459  -0.53725  -0.52192  -0.50144
 Alpha  occ. eigenvalues --   -0.48523  -0.48012  -0.47445  -0.40045  -0.38111
 Alpha  occ. eigenvalues --   -0.35894  -0.32561  -0.32287
 Alpha virt. eigenvalues --   -0.01199  -0.00082   0.00020   0.00771   0.01616
 Alpha virt. eigenvalues --    0.01912   0.03008   0.04036   0.04204   0.04633
 Alpha virt. eigenvalues --    0.05382   0.06215   0.06371   0.07172   0.08046

 Mulliken charges:
               1
     1  C   -0.834312
     2  N    0.720767
     3  C   -1.063727
     4  C   -0.150567
     5  C    0.778888
     6  N   -0.976396
     7  C    0.679176
     8  O   -0.884034
     9  O   -0.495291
    10  H    0.312302
    11  H    0.327831
    12  H    0.327049
    13  H    0.676463
    14  H    0.293868
    15  H    0.287985
 Sum of Mulliken charges =   0.00000

 Dipole moment (field-independent basis, Debye):
    X=              3.3550    Y=              2.8310    Z=              0.0015  Tot=              4.3898
 Quadrupole moment (field-independent basis, Debye-Ang):
   XX=            -36.0179   YY=            -55.7754   ZZ=            -52.9966
   XY=             -4.3855   XZ=             -0.0026   YZ=             -0.0019

  Exact polarizability:     107.589      -0.078      83.136       0.013      -0.006      51.556
 Approx polarizability:     117.290       1.666     110.704       0.007       0.004      67.126

 Summary of Natural Population Analysis:

                                       Natural Population
                Natural  -----------------------------------------------
    Atom  No    Charge         Core      Valence    Rydberg      Total
 -----------------------------------------------------------------------
      C    1   -0.36649      1.99942     4.35299    0.01408     6.36649
      N    2   -0.16992      1.99948     5.14055    0.02988     7.16992
      C    3   -0.03700      1.99924     4.02114    0.01661     6.03700
      C    4   -0.29214      1.99919     4.27691    0.01605     6.29214
      C    5   -0.01760      1.99913     3.98469    0.03378     6.01760
      N    6   -0.21194      1.99944     5.18343    0.02907     7.21194
      C    7    0.78879      1.99939     3.17775    0.03407     5.21121
      O    8   -0.57870      1.99977     6.54652    0.03242     8.57870
      O    9   -0.70273      1.99978     6.67844    0.02451     8.70273
      H   10    0.20386      0.00000     0.79412    0.00202     0.79614
      H   11    0.21558      0.00000     0.78205    0.00237     0.78442
      H   12    0.21625      0.00000     0.78137    0.00238     0.78375
      H   13    0.21626      0.00000     0.78060    0.00314     0.78374
      H   14    0.24008      0.00000     0.75656    0.00336     0.75992
      H   15    0.49570      0.00000     0.50096    0.00334     0.50430
 =======================================================================
   * Total *    0.00000     17.99483    47.75809    0.24708    66.00000

 ******    1 imaginary frequencies (negative Signs) ******

                      1                      2                      3
                      A                      A                      A
 Frequencies --    -14.4307                66.4945               155.1913
 Red. masses --      1.1007                 5.7681                 4.4123
 Frc consts  --      0.0001                 0.0150                 0.0626
 IR Inten    --      0.3773                 0.4000                 8.5327

                      4                      5                      6
                      A                      A                      A
 Frequencies --    171.9849               269.7070               357.1184
 Red. masses --      5.3197                 3.7142                 3.6417
 Frc consts  --      0.0927                 0.1592                 0.2736
 IR Inten    --      2.5272                 0.1604                 4.1371

                      7                      8                      9
                      A                      A                      A
 Frequencies --    424.0465               530.3618               570.0420
 Red. masses --      6.8472                 5.4629                 1.2945
 Frc consts  --      0.7254                 0.9053                 0.2478
 IR Inten    --      6.4518                 2.2798                58.1718

                     10                     11                     12
                      A                      A                      A
 Frequencies --    654.4971               686.1968               690.7480
 Red. masses --      3.0859                 5.0480                 3.9521
 Frc consts  --      0.7789                 1.4005                 1.1110
 IR Inten    --     21.4777                20.6565                23.5966

                     13                     14                     15
                      A                      A                      A
 Frequencies --    743.4573               785.8037               826.9609
 Red. masses --      4.6117                 1.3564                 4.7770
 Frc consts  --      1.5018                 0.4935                 1.9247
 IR Inten    --     42.8665                83.3271                 1.5320

                     16                     17                     18
                      A                      A                      A
 Frequencies --    901.7583              1011.5907              1035.5592
 Red. masses --      1.4310                 5.0181                 2.3131
 Frc consts  --      0.6856                 3.0255                 1.4615
 IR Inten    --      0.0056                 8.2942                 2.9984

                     19                     20                     21
                      A                      A                      A
 Frequencies --   1078.3581              1090.4363              1154.7931
 Red. masses --      1.8483                 1.4895                 1.3279
 Frc consts  --      1.2663                 1.0435                 1.0433
 IR Inten    --     32.4219                 2.7517                 0.0527

                     22                     23                     24
                      A                      A                      A
 Frequencies --   1186.0019              1219.1509              1338.0449
 Red. masses --      2.6666                 1.5636                 2.4410
 Frc consts  --      2.2100                 1.3693                 2.5748
 IR Inten    --    297.3279                99.8905                80.7682

                     25                     26                     27
                      A                      A                      A
 Frequencies --   1378.6158              1431.4295              1457.6419
 Red. masses --      4.4176                 3.8494                 3.4069
 Frc consts  --      4.9468                 4.6471                 4.2649
 IR Inten    --      0.8414                65.9074                 4.4582

                     28                     29                     30
                      A                      A                      A
 Frequencies --   1465.8861              1484.1874              1514.4535
 Red. masses --      1.7490                 1.0390                 1.4681
 Frc consts  --      2.2144                 1.3485                 1.9839
 IR Inten    --     13.3307                 9.3142                39.1117

                     31                     32                     33
                      A                      A                      A
 Frequencies --   1543.2515              1580.2670              1874.0692
 Red. masses --      2.4550                 5.8671                10.5288
 Frc consts  --      3.4448                 8.6325                21.7872
 IR Inten    --     33.5301                 3.9718               393.1664

                     34                     35                     36
                      A                      A                      A
 Frequencies --   3089.0974              3164.0504              3183.0085
 Red. masses --      1.0320                 1.1062                 1.1052
 Frc consts  --      5.8023                 6.5248                 6.5975
 IR Inten    --     25.0898                 3.9124                 3.3925

                     37                     38                     39
                      A                      A                      A
 Frequencies --   3281.6336              3311.4370              3820.6262
 Red. masses --      1.0952                 1.1037                 1.0645
 Frc consts  --      6.9490                 7.1310                 9.1551
 IR Inten    --      0.0406                 1.9614               119.7484

 - Thermochemistry -
 -------------------
 Temperature   298.150 Kelvin.  Pressure   1.00000 Atm.
 Atom     1 has atomic number  6 and mass  12.00000

 Molecular mass:   126.04293 amu.
 Principal axes and moments of inertia in atomic units:
                           1         2         3
     Eigenvalues --   420.787981640.032832049.48869
           X            0.99982  -0.01906   0.00002
           Y            0.01906   0.99982  -0.00003
           Z           -0.00002   0.00003   1.00000
 This molecule is an asymmetric top.
 Rotational symmetry number  1.
 Rotational temperatures (Kelvin)      0.20584     0.05281     0.04226
 Rotational constants (GHZ):           4.28896     1.10043     0.88058
    1 imaginary frequencies ignored.
 Zero-point vibrational energy     302224.3 (Joules/Mol)
                                   72.23334 (Kcal/Mol)
 Warning -- explicit consideration of   8 degrees of freedom as
           vibrations may cause significant error
 Vibrational temperatures:     95.67   223.29   247.45   388.05   513.81
          (Kelvin)            610.11   763.07   820.16   941.68   987.28
                              993.83  1069.67  1130.60  1189.81  1297.43
                             1455.45  1489.94  1551.52  1568.89  1661.49
                             1706.39  1754.09  1925.15  1983.52  2059.51
                             2097.22  2109.08  2135.41  2178.96  2220.39
                             2273.65  2696.37  4444.52  4552.36  4579.64
                             4721.54  4764.42  5497.03

 Zero-point correction=                           0.115111 (Hartree/Particle)
 Thermal correction to Energy=                    0.122363
 Thermal correction to Enthalpy=                  0.123307
 Thermal correction to Gibbs Free Energy=         0.082685
 Sum of electronic and zero-point Energies=           -453.974073
 Sum of electronic and thermal Energies=              -453.966822
 Sum of electronic and thermal Enthalpies=            -453.965877
 Sum of electronic and thermal Free Energies=         -454.006500

                     E (Thermal)             CV                S
                      KCal/Mol        Cal/Mol-Kelvin    Cal/Mol-Kelvin
 Total                   76.784             26.578             85.497
 Electronic               0.000              0.000              0.000
 Translational            0.889              2.981             40.408
 Rotational               0.889              2.981             28.738
 Vibrational             75.006             20.616             16.351
 Vibration     1          0.598              1.970              4.255
 Vibration     2          0.620              1.897              2.608
 Vibration     3          0.626              1.877              2.414
 Vibration     4          0.674              1.729              1.598
 Vibration     5          0.732              1.561              1.135
 Vibration     6          0.786              1.418              0.878
 Vibration     7          0.885              1.183              0.586
 Vibration     8          0.926              1.096              0.504

                           ! Non-Optimized Parameters !
 Normal termination of Gaussian 16 at Tue Mar  4 18:06:19 2025.
