 Gaussian 16, Revision C.01,
 Gaussian 16:  ES64L-G16RevC.01  3-Jul-2019

 ------------------------------------
 # opt freq m062x/aug-cc-pvtz pop=nbo
 ------------------------------------

 -
 5
 -
 Symbolic Z-matrix:
 Charge =  0 Multiplicity = 1

 SCF Done:  E(RM062X) =  -493.348211690     A.U. after   14 cycles
 SCF Done:  E(RM062X) =  -493.391259956     A.U. after   12 cycles
 SCF Done:  E(RM062X) =  -493.399434678     A.U. after   12 cycles
 SCF Done:  E(RM062X) =  -493.399922828     A.U. after   10 cycles
 SCF Done:  E(RM062X) =  -493.399986698     A.U. after   11 cycles
 SCF Done:  E(RM062X) =  -493.399995856     A.U. after    9 cycles
 SCF Done:  E(RM062X) =  -493.399996838     A.U. after    8 cycles
 Optimization completed.
    -- Stationary point found.
 Normal termination of Gaussian 16 at Tue Mar  4 17:56:59 2025.

 ----------------------------------------------------------------------
 #N Geom=AllCheck Guess=TCheck SCRF=Check GenChk RM062X/Aug-CC-pVTZ Fre
 q
 ----------------------------------------------------------------------

 Structure from the checkpoint file:  "5.chk"
 -
 5
 -
 Charge =  0 Multiplicity = 1

                         Standard orientation:
 ---------------------------------------------------------------------
 Center     Atomic      Atomic             Coordinates (Angstroms)
 Number     Number       Type             X           Y           Z
 ---------------------------------------------------------------------
      1          6           0       -3.136050   -0.804783    0.001400
      2          7           0       -1.804287   -0.237039   -0.001240
      3          6           0       -1.462557    1.074704   -0.000613
      4          6           0       -0.090289    1.143352   -0.000024
      5          6           0        0.745094    2.381654    0.000172
      6          6           0        0.297877   -0.217472   -0.000213
      7          7           0       -0.754236   -1.033115   -0.000787
      8          6           0        1.649375   -0.805152   -0.000270
      9          8           0        1.914399   -1.972997   -0.000195
     10          8           0        2.605092    0.153298    0.000829
     11          1           0       -3.858363    0.006176   -0.015968
     12          1           0       -3.266047   -1.433040   -0.876350
     13          1           0       -3.276550   -1.404261    0.897650
     14          1           0       -2.210288    1.849785   -0.000821
     15          1           0        1.391165    2.420064    0.875569
     16          1           0        1.391252    2.420314   -0.875152
     17          1           0        0.108063    3.264350    0.000269
     18          1           0        3.453802   -0.308526    0.001202
 ---------------------------------------------------------------------

 SCF Done:  E(RM062X) =  -493.399996838     A.U. after    1 cycles

 The electronic state is 1-A.
 Alpha  occ. eigenvalues --  -19.66968 -19.61030 -14.84601 -14.78118 -10.67498
 Alpha  occ. eigenvalues --  -10.59246 -10.58061 -10.57140 -10.55420 -10.53798
 Alpha  occ. eigenvalues --   -1.23645  -1.19235  -1.13903  -0.96341  -0.91392
 Alpha  occ. eigenvalues --   -0.83925  -0.80358  -0.73727  -0.68195  -0.64586
 Alpha  occ. eigenvalues --   -0.61089  -0.57756  -0.57452  -0.54901  -0.53599
 Alpha  occ. eigenvalues --   -0.51016  -0.50345  -0.49175  -0.48544  -0.46861
 Alpha  occ. eigenvalues --   -0.46555  -0.43973  -0.39834  -0.37371  -0.35636
 Alpha  occ. eigenvalues --   -0.32060  -0.30651
 Alpha virt. eigenvalues --   -0.01181  -0.00163   0.00112   0.00644   0.01214
 Alpha virt. eigenvalues --    0.01736   0.02525   0.02782   0.03320   0.04264
 Alpha virt. eigenvalues --    0.05066   0.05643   0.05997   0.06567   0.07238

 Mulliken charges:
               1
     1  C   -0.957992
     2  N    0.636730
     3  C   -1.348769
     4  C    1.374706
     5  C   -0.848854
     6  C    0.564618
     7  N   -1.187537
     8  C    0.698155
     9  O   -0.900805
    10  O   -0.424850
    11  H    0.302549
    12  H    0.319017
    13  H    0.320087
    14  H    0.650995
    15  H    0.226058
    16  H    0.226283
    17  H    0.083283
    18  H    0.266327
 Sum of Mulliken charges =   0.00000

 Dipole moment (field-independent basis, Debye):
    X=             -2.7618    Y=              3.4324    Z=              0.0016  Tot=              4.4056
 Quadrupole moment (field-independent basis, Debye-Ang):
   XX=            -41.6871   YY=            -64.6434   ZZ=            -59.1829
   XY=              3.2618   XZ=              0.0028   YZ=             -0.0020

  Exact polarizability:     119.202       1.481     100.623      -0.019      -0.007      60.140
 Approx polarizability:     132.777      -1.256     126.221      -0.009      -0.001      79.803

 Summary of Natural Population Analysis:

                                       Natural Population
                Natural  -----------------------------------------------
    Atom  No    Charge         Core      Valence    Rydberg      Total
 -----------------------------------------------------------------------
      C    1   -0.36658      1.99942     4.35302    0.01414     6.36658
      N    2   -0.16571      1.99948     5.13699    0.02924     7.16571
      C    3   -0.04301      1.99910     4.02864    0.01526     6.04301
      C    4   -0.08940      1.99911     4.06653    0.02376     6.08940
      C    5   -0.60328      1.99944     4.59194    0.01190     6.60328
      C    6   -0.02250      1.99901     3.99180    0.03169     6.02250
      N    7   -0.20713      1.99945     5.17879    0.02889     7.20713
      C    8    0.79108      1.99939     3.17586    0.03367     5.20892
      O    9   -0.58256      1.99977     6.55039    0.03241     8.58256
      O   10   -0.70749      1.99979     6.68336    0.02434     8.70749
      H   11    0.20325      0.00000     0.79468    0.00207     0.79675
      H   12    0.21550      0.00000     0.78213    0.00237     0.78450
      H   13    0.21473      0.00000     0.78291    0.00236     0.78527
      H   14    0.21356      0.00000     0.78343    0.00301     0.78644
      H   15    0.22392      0.00000     0.77361    0.00248     0.77608
      H   16    0.22390      0.00000     0.77363    0.00248     0.77610
      H   17    0.20577      0.00000     0.79174    0.00249     0.79423
      H   18    0.49595      0.00000     0.50070    0.00336     0.50405
 =======================================================================
   * Total *    0.00000     19.99395    53.74014    0.26591    74.00000

 ******    1 imaginary frequencies (negative Signs) ******

                      1                      2                      3
                      A                      A                      A
 Frequencies --    -44.1634                56.0737               149.7290
 Red. masses --      1.0842                 7.1292                 3.5895
 Frc consts  --      0.0012                 0.0132                 0.0474
 IR Inten    --      0.2748                 1.0766                 7.7803

                      4                      5                      6
                      A                      A                      A
 Frequencies --    166.2765               176.0754               214.0595
 Red. masses --      1.0609                 5.2353                 3.1289
 Frc consts  --      0.0173                 0.0956                 0.0845
 IR Inten    --      0.1943                 1.1804                 0.0676

                      7                      8                      9
                      A                      A                      A
 Frequencies --    267.1732               317.5245               368.7483
 Red. masses --      2.7688                 3.9957                 4.4401
 Frc consts  --      0.1164                 0.2374                 0.3557
 IR Inten    --      3.3653                 0.4271                 2.5781

                     10                     11                     12
                      A                      A                      A
 Frequencies --    424.9685               561.2741               568.2239
 Red. masses --      6.7287                 4.1801                 1.2524
 Frc consts  --      0.7160                 0.7759                 0.2382
 IR Inten    --      5.7841                 1.4025                53.6674

                     13                     14                     15
                      A                      A                      A
 Frequencies --    618.8027               659.8873               689.5540
 Red. masses --      4.4418                 3.1884                 5.2880
 Frc consts  --      1.0021                 0.8180                 1.4814
 IR Inten    --      2.5056                20.6964                42.7754

                     16                     17                     18
                      A                      A                      A
 Frequencies --    699.4191               814.6011               822.5055
 Red. masses --      3.8546                 4.6942                 3.7881
 Frc consts  --      1.1110                 1.8353                 1.5099
 IR Inten    --     46.0765                14.9767                 1.3053

                     19                     20                     21
                      A                      A                      A
 Frequencies --    829.1594              1018.5217              1062.8790
 Red. masses --      1.7577                 1.4692                 4.4495
 Frc consts  --      0.7120                 0.8980                 2.9616
 IR Inten    --     33.3846                 3.3848                16.0475

                     22                     23                     24
                      A                      A                      A
 Frequencies --   1071.8594              1090.3808              1145.7027
 Red. masses --      1.4819                 1.6139                 5.5992
 Frc consts  --      1.0031                 1.1306                 4.3303
 IR Inten    --      0.8261                 6.1876               153.7850

                     25                     26                     27
                      A                      A                      A
 Frequencies --   1151.5032              1198.5295              1219.5504
 Red. masses --      1.3279                 1.6574                 1.9195
 Frc consts  --      1.0374                 1.4028                 1.6821
 IR Inten    --      0.1190               147.3072                83.0506

                     28                     29                     30
                      A                      A                      A
 Frequencies --   1352.4547              1388.9759              1412.3840
 Red. masses --      2.6867                 4.4808                 4.0044
 Frc consts  --      2.8955                 5.0933                 4.7065
 IR Inten    --     72.5317                18.7082                18.5684

                     31                     32                     33
                      A                      A                      A
 Frequencies --   1422.7317              1457.8703              1481.2828
 Red. masses --      1.3455                 1.4953                 1.8815
 Frc consts  --      1.6046                 1.8725                 2.4324
 IR Inten    --      4.2813                13.8439                48.1130

                     34                     35                     36
                      A                      A                      A
 Frequencies --   1483.5097              1485.8256              1504.0811
 Red. masses --      1.0406                 1.0409                 1.4303
 Frc consts  --      1.3494                 1.3539                 1.9065
 IR Inten    --      5.6895                10.9771                10.2132

                     37                     38                     39
                      A                      A                      A
 Frequencies --   1519.0768              1540.0232              1625.4635
 Red. masses --      2.0569                 2.1504                 6.3887
 Frc consts  --      2.7965                 3.0049                 9.9452
 IR Inten    --     27.1801                25.4145                 0.7408

                     40                     41                     42
                      A                      A                      A
 Frequencies --   1868.5202              3075.7994              3088.5021
 Red. masses --     10.4175                 1.0352                 1.0321
 Frc consts  --     21.4294                 5.7703                 5.8003
 IR Inten    --    431.6424                19.9517                28.0730

                     43                     44                     45
                      A                      A                      A
 Frequencies --   3140.2707              3149.3196              3162.5378
 Red. masses --      1.1013                 1.1032                 1.1061
 Frc consts  --      6.3986                 6.4465                 6.5182
 IR Inten    --      5.9302                12.5627                 4.3400

                     46                     47                     48
                      A                      A                      A
 Frequencies --   3182.4352              3276.3231              3818.6698
 Red. masses --      1.1051                 1.0987                 1.0644
 Frc consts  --      6.5946                 6.9488                 9.1451
 IR Inten    --      3.5811                 0.0587               116.1608

 - Thermochemistry -
 -------------------
 Temperature   298.150 Kelvin.  Pressure   1.00000 Atm.
 Atom     1 has atomic number  6 and mass  12.00000

 Molecular mass:   140.05858 amu.
 Principal axes and moments of inertia in atomic units:
                           1         2         3
     Eigenvalues --   801.969061662.872562442.48023
           X            0.99900   0.04477  -0.00002
           Y           -0.04477   0.99900  -0.00002
           Z            0.00002   0.00002   1.00000
 This molecule is an asymmetric top.
 Rotational symmetry number  1.
 Warning -- assumption of classical behavior for rotation
           may cause significant error
 Rotational temperatures (Kelvin)      0.10800     0.05209     0.03546
 Rotational constants (GHZ):           2.25039     1.08532     0.73890
    1 imaginary frequencies ignored.
 Zero-point vibrational energy     375621.7 (Joules/Mol)
                                   89.77573 (Kcal/Mol)
 Warning -- explicit consideration of  12 degrees of freedom as
           vibrations may cause significant error
 Vibrational temperatures:     80.68   215.43   239.23   253.33   307.98
          (Kelvin)            384.40   456.85   530.55   611.43   807.55
                              817.55   890.32   949.43   992.11  1006.31
                             1172.03  1183.40  1192.98  1465.43  1529.25
                             1542.17  1568.81  1648.41  1656.76  1724.42
                             1754.66  1945.88  1998.43  2032.11  2046.99
                             2097.55  2131.24  2134.44  2137.77  2164.04
                             2185.61  2215.75  2338.68  2688.38  4425.39
                             4443.67  4518.15  4531.17  4550.19  4578.81
                             4713.90  5494.21

 Zero-point correction=                           0.143067 (Hartree/Particle)
 Thermal correction to Energy=                    0.151955
 Thermal correction to Enthalpy=                  0.152899
 Thermal correction to Gibbs Free Energy=         0.108734
 Sum of electronic and zero-point Energies=           -493.256930
 Sum of electronic and thermal Energies=              -493.248042
 Sum of electronic and thermal Enthalpies=            -493.247098
 Sum of electronic and thermal Free Energies=         -493.291263

                     E (Thermal)             CV                S
                      KCal/Mol        Cal/Mol-Kelvin    Cal/Mol-Kelvin
 Total                   95.353             32.561             92.953
 Electronic               0.000              0.000              0.000
 Translational            0.889              2.981             40.722
 Rotational               0.889              2.981             29.567
 Vibrational             93.576             26.599             22.664
 Vibration     1          0.596              1.975              4.591
 Vibration     2          0.618              1.903              2.676
 Vibration     3          0.624              1.884              2.477
 Vibration     4          0.628              1.872              2.370
 Vibration     5          0.644              1.820              2.009
 Vibration     6          0.672              1.733              1.614
 Vibration     7          0.704              1.640              1.323
 Vibration     8          0.741              1.536              1.085
 Vibration     9          0.787              1.416              0.875
 Vibration    10          0.917              1.115              0.521
 Vibration    11          0.924              1.100              0.508
 Vibration    12          0.979              0.992              0.418

                           ! Non-Optimized Parameters !
 Normal termination of Gaussian 16 at Tue Mar  4 18:37:18 2025.
