 Gaussian 16, Revision C.01,
 Gaussian 16:  ES64L-G16RevC.01  3-Jul-2019

 ------------------------------------
 # opt freq m062x/aug-cc-pvtz pop=nbo
 ------------------------------------

 -
 6
 -
 Symbolic Z-matrix:
 Charge =  0 Multiplicity = 1

 SCF Done:  E(RM062X) =  -454.048982617     A.U. after   14 cycles
 SCF Done:  E(RM062X) =  -454.088767319     A.U. after   12 cycles
 SCF Done:  E(RM062X) =  -454.094125860     A.U. after   12 cycles
 SCF Done:  E(RM062X) =  -454.094571941     A.U. after   10 cycles
 SCF Done:  E(RM062X) =  -454.094643664     A.U. after   10 cycles
 SCF Done:  E(RM062X) =  -454.094657445     A.U. after    9 cycles
 SCF Done:  E(RM062X) =  -454.094659198     A.U. after    8 cycles
 Optimization completed.
    -- Stationary point found.
 Normal termination of Gaussian 16 at Tue Mar  4 17:36:53 2025.

 ----------------------------------------------------------------------
 #N Geom=AllCheck Guess=TCheck SCRF=Check GenChk RM062X/Aug-CC-pVTZ Fre
 q
 ----------------------------------------------------------------------

 Structure from the checkpoint file:  "6.chk"
 -
 6
 -
 Charge =  0 Multiplicity = 1

                         Standard orientation:
 ---------------------------------------------------------------------
 Center     Atomic      Atomic             Coordinates (Angstroms)
 Number     Number       Type             X           Y           Z
 ---------------------------------------------------------------------
      1          6           0       -3.102050   -0.589202    0.001596
      2          7           0       -1.736908   -0.110155   -0.001464
      3          6           0       -0.610371   -0.831557   -0.000879
      4          6           0        0.434491    0.070422   -0.000141
      5          6           0       -0.190372    1.333279   -0.000015
      6          7           0       -1.503773    1.213754   -0.000737
      7          6           0        1.850356   -0.278846   -0.000140
      8          8           0        2.290245   -1.399151   -0.000084
      9          8           0        2.646136    0.810308    0.000906
     10          1           0       -3.089498   -1.675102   -0.017086
     11          1           0       -3.608950   -0.241304    0.898575
     12          1           0       -3.621674   -0.210680   -0.875267
     13          1           0       -0.608424   -1.907982   -0.001303
     14          1           0        0.272243    2.305690    0.000094
     15          1           0        3.557699    0.490364    0.001287
 ---------------------------------------------------------------------

 SCF Done:  E(RM062X) =  -454.094659198     A.U. after    1 cycles

 The electronic state is 1-A.
 Alpha  occ. eigenvalues --  -19.67314 -19.61507 -14.85019 -14.78122 -10.68196
 Alpha  occ. eigenvalues --  -10.59657 -10.59651 -10.57437 -10.55273  -1.24014
 Alpha  occ. eigenvalues --   -1.19149  -1.14300  -0.96708  -0.91438  -0.82830
 Alpha  occ. eigenvalues --   -0.75772  -0.68924  -0.66123  -0.63097  -0.57914
 Alpha  occ. eigenvalues --   -0.57909  -0.56478  -0.53982  -0.52131  -0.49972
 Alpha  occ. eigenvalues --   -0.48233  -0.48159  -0.47221  -0.40354  -0.39024
 Alpha  occ. eigenvalues --   -0.35675  -0.33286  -0.32103
 Alpha virt. eigenvalues --   -0.01020  -0.00072  -0.00002   0.01111   0.01839
 Alpha virt. eigenvalues --    0.01927   0.02854   0.03463   0.04564   0.04687
 Alpha virt. eigenvalues --    0.05061   0.06218   0.06266   0.07390   0.07623

 Mulliken charges:
               1
     1  C   -0.854810
     2  N    0.685267
     3  C   -1.300609
     4  C    1.441844
     5  C   -0.177450
     6  N   -1.027295
     7  C    0.391064
     8  O   -0.912286
     9  O   -0.518716
    10  H    0.302656
    11  H    0.319195
    12  H    0.318115
    13  H    0.526830
    14  H    0.524255
    15  H    0.281940
 Sum of Mulliken charges =   0.00000

 Dipole moment (field-independent basis, Debye):
    X=             -2.0331    Y=             -0.6812    Z=              0.0017  Tot=              2.1442
 Quadrupole moment (field-independent basis, Debye-Ang):
   XX=            -42.1801   YY=            -55.1190   ZZ=            -52.8945
   XY=             11.2448   XZ=              0.0016   YZ=              0.0014

  Exact polarizability:     109.319       0.442      81.642      -0.020       0.000      50.983
 Approx polarizability:     118.350      -1.876     109.219      -0.010       0.004      66.596

 Summary of Natural Population Analysis:

                                       Natural Population
                Natural  -----------------------------------------------
    Atom  No    Charge         Core      Valence    Rydberg      Total
 -----------------------------------------------------------------------
      C    1   -0.36604      1.99942     4.35247    0.01416     6.36604
      N    2   -0.18016      1.99946     5.15123    0.02948     7.18016
      C    3    0.03941      1.99915     3.94484    0.01660     5.96059
      C    4   -0.30091      1.99899     4.27364    0.02828     6.30091
      C    5    0.00838      1.99932     3.96864    0.02366     5.99162
      N    6   -0.27232      1.99949     5.24038    0.03244     7.27232
      C    7    0.80609      1.99934     3.16313    0.03144     5.19391
      O    8   -0.61302      1.99977     6.58090    0.03234     8.61302
      O    9   -0.69980      1.99979     6.67291    0.02710     8.69980
      H   10    0.20609      0.00000     0.79186    0.00205     0.79391
      H   11    0.21415      0.00000     0.78344    0.00241     0.78585
      H   12    0.21490      0.00000     0.78268    0.00243     0.78510
      H   13    0.23003      0.00000     0.76629    0.00368     0.76997
      H   14    0.21803      0.00000     0.77845    0.00352     0.78197
      H   15    0.49518      0.00000     0.50104    0.00378     0.50482
 =======================================================================
   * Total *    0.00000     17.99473    47.75192    0.25336    66.00000

                      1                      2                      3
                      A                      A                      A
 Frequencies --     78.7540                82.6547               152.2497
 Red. masses --      2.2213                 1.6476                 3.7839
 Frc consts  --      0.0081                 0.0066                 0.0517
 IR Inten    --      3.4641                 1.6700                 0.1695

                      4                      5                      6
                      A                      A                      A
 Frequencies --    153.9601               262.7066               354.3638
 Red. masses --      5.3343                 3.9963                 3.7023
 Frc consts  --      0.0745                 0.1625                 0.2739
 IR Inten    --      3.6928                 1.7059                 0.9065

                      7                      8                      9
                      A                      A                      A
 Frequencies --    413.8906               532.0512               569.5662
 Red. masses --      5.9215                 5.7149                 1.2912
 Frc consts  --      0.5977                 0.9532                 0.2468
 IR Inten    --     10.4607                 8.8777                97.0988

                     10                     11                     12
                      A                      A                      A
 Frequencies --    639.9819               683.8316               686.5405
 Red. masses --      2.4896                 4.0005                 5.1059
 Frc consts  --      0.6008                 1.1022                 1.4179
 IR Inten    --      3.1899                26.5112                 0.1537

                     13                     14                     15
                      A                      A                      A
 Frequencies --    753.5010               800.4442               883.6722
 Red. masses --      4.1592                 4.6138                 1.4518
 Frc consts  --      1.3913                 1.7417                 0.6679
 IR Inten    --     42.1640                65.1675                 1.3898

                     16                     17                     18
                      A                      A                      A
 Frequencies --    929.5153              1012.8508              1025.9137
 Red. masses --      1.4644                 3.2878                 6.5364
 Frc consts  --      0.7455                 1.9872                 4.0533
 IR Inten    --     12.7680                45.7280                11.0158

                     19                     20                     21
                      A                      A                      A
 Frequencies --   1084.6081              1138.8170              1156.0788
 Red. masses --      1.4637                 2.1937                 1.3294
 Frc consts  --      1.0145                 1.6763                 1.0468
 IR Inten    --     26.0951                58.1891                 0.0341

                     22                     23                     24
                      A                      A                      A
 Frequencies --   1209.0031              1223.9032              1332.1372
 Red. masses --      1.6519                 1.5074                 4.0459
 Frc consts  --      1.4226                 1.3304                 4.2302
 IR Inten    --    245.7495                65.7901                23.1503

                     25                     26                     27
                      A                      A                      A
 Frequencies --   1358.6247              1439.6728              1451.4352
 Red. masses --      2.8356                 6.6180                 1.5157
 Frc consts  --      3.0838                 8.0818                 1.8813
 IR Inten    --     70.4149                 0.5794                39.6177

                     28                     29                     30
                      A                      A                      A
 Frequencies --   1475.4521              1483.1552              1503.7460
 Red. masses --      3.3455                 1.0403                 1.3507
 Frc consts  --      4.2910                 1.3483                 1.7995
 IR Inten    --     28.6834                 9.4760                 4.9443

                     31                     32                     33
                      A                      A                      A
 Frequencies --   1557.1907              1623.6144              1841.6314
 Red. masses --      2.7666                 5.6286                10.1127
 Frc consts  --      3.9526                 8.7422                20.2080
 IR Inten    --     10.3852               182.0848               467.9230

                     34                     35                     36
                      A                      A                      A
 Frequencies --   3087.7926              3161.1318              3183.2582
 Red. masses --      1.0321                 1.1060                 1.1051
 Frc consts  --      5.7980                 6.5115                 6.5980
 IR Inten    --     24.5662                 4.7000                 3.5126

                     37                     38                     39
                      A                      A                      A
 Frequencies --   3278.7333              3288.0125              3820.4562
 Red. masses --      1.0981                 1.1001                 1.0645
 Frc consts  --      6.9549                 7.0072                 9.1539
 IR Inten    --      0.1181                 3.5054               121.3910

 - Thermochemistry -
 -------------------
 Temperature   298.150 Kelvin.  Pressure   1.00000 Atm.
 Atom     1 has atomic number  6 and mass  12.00000

 Molecular mass:   126.04293 amu.
 Principal axes and moments of inertia in atomic units:
                           1         2         3
     Eigenvalues --   395.994731729.059082113.72475
           X            0.99962   0.02768  -0.00003
           Y           -0.02768   0.99962  -0.00001
           Z            0.00003   0.00001   1.00000
 This molecule is an asymmetric top.
 Rotational symmetry number  1.
 Rotational temperatures (Kelvin)      0.21872     0.05009     0.04098
 Rotational constants (GHZ):           4.55749     1.04377     0.85382
 Zero-point vibrational energy     303342.5 (Joules/Mol)
                                   72.50059 (Kcal/Mol)
 Warning -- explicit consideration of   9 degrees of freedom as
           vibrations may cause significant error
 Vibrational temperatures:    113.31   118.92   219.05   221.51   377.98
          (Kelvin)            509.85   595.50   765.50   819.48   920.79
                              983.88   987.78  1084.12  1151.66  1271.41
                             1337.37  1457.27  1476.06  1560.51  1638.50
                             1663.34  1739.49  1760.92  1916.65  1954.76
                             2071.37  2088.29  2122.85  2133.93  2163.56
                             2240.45  2336.02  2649.70  4442.64  4548.16
                             4580.00  4717.37  4730.72  5496.78

 Zero-point correction=                           0.115537 (Hartree/Particle)
 Thermal correction to Energy=                    0.123566
 Thermal correction to Enthalpy=                  0.124510
 Thermal correction to Gibbs Free Energy=         0.082087
 Sum of electronic and zero-point Energies=           -453.979122
 Sum of electronic and thermal Energies=              -453.971093
 Sum of electronic and thermal Enthalpies=            -453.970149
 Sum of electronic and thermal Free Energies=         -454.012573

                     E (Thermal)             CV                S
                      KCal/Mol        Cal/Mol-Kelvin    Cal/Mol-Kelvin
 Total                   77.539             28.418             89.288
 Electronic               0.000              0.000              0.000
 Translational            0.889              2.981             40.408
 Rotational               0.889              2.981             28.761
 Vibrational             75.761             22.456             20.120
 Vibration     1          0.600              1.963              3.922
 Vibration     2          0.600              1.961              3.827
 Vibration     3          0.619              1.900              2.644
 Vibration     4          0.619              1.898              2.623
 Vibration     5          0.670              1.741              1.644
 Vibration     6          0.730              1.566              1.147
 Vibration     7          0.777              1.440              0.913
 Vibration     8          0.887              1.179              0.583
 Vibration     9          0.926              1.097              0.505

                           ! Non-Optimized Parameters !
 Normal termination of Gaussian 16 at Tue Mar  4 18:06:10 2025.
