 Gaussian 16, Revision C.01,
 Gaussian 16:  ES64L-G16RevC.01  3-Jul-2019

 ------------------------------------
 # opt freq m062x/aug-cc-pvtz pop=nbo
 ------------------------------------

 -
 7
 -
 Symbolic Z-matrix:
 Charge =  0 Multiplicity = 1

 SCF Done:  E(RM062X) =  -532.674113374     A.U. after   14 cycles
 SCF Done:  E(RM062X) =  -532.716273285     A.U. after   12 cycles
 SCF Done:  E(RM062X) =  -532.723810149     A.U. after   12 cycles
 SCF Done:  E(RM062X) =  -532.724433587     A.U. after   10 cycles
 SCF Done:  E(RM062X) =  -532.724550290     A.U. after   10 cycles
 SCF Done:  E(RM062X) =  -532.724568080     A.U. after   10 cycles
 SCF Done:  E(RM062X) =  -532.724567474     A.U. after    9 cycles
 SCF Done:  E(RM062X) =  -532.724572071     A.U. after    9 cycles
 Optimization completed.
    -- Stationary point found.

 1\1\GINC-AE24\FOpt\RM062X\Aug-CC-pVTZ\C7H10N2O2\DHUANG\04-Mar-2025\0\\
 # opt freq m062x/aug-cc-pvtz pop=nbo\\7\\0,1\C,1.0449983242,-2.9324846
 548,3.2072057787\N,-0.0548634048,-2.3098952643,2.5009540563\N,-1.08159
 6079,-1.7861809834,3.2115306014\C,-1.9218327167,-1.2969010656,2.322263
 5463\C,-3.1836812675,-0.6350525079,2.759342156\C,-1.4237076761,-1.5112
 388634,1.0117889364\C,-0.2126343069,-2.1705148987,1.1785394854\C,0.767
 1817191,-2.6569541571,0.1709404758\C,-1.9786104552,-1.1586885041,-0.28
 21106661\O,-1.4625438195,-1.3913382013,-1.3492374472\O,-3.1678512831,-

 Normal termination of Gaussian 16 at Tue Mar  4 18:30:58 2025.

 ----------------------------------------------------------------------
 #N Geom=AllCheck Guess=TCheck SCRF=Check GenChk RM062X/Aug-CC-pVTZ Fre
 q
 ----------------------------------------------------------------------

 Structure from the checkpoint file:  "7.chk"
 -
 7
 -
 Charge =  0 Multiplicity = 1

                         Standard orientation:
 ---------------------------------------------------------------------
 Center     Atomic      Atomic             Coordinates (Angstroms)
 Number     Number       Type             X           Y           Z
 ---------------------------------------------------------------------
      1          6           0        3.155075    0.062440    0.000278
      2          7           0        1.717134    0.231057   -0.000355
      3          7           0        1.200830    1.482778   -0.000321
      4          6           0       -0.108155    1.331957   -0.000067
      5          6           0       -1.005689    2.521821   -0.000138
      6          6           0       -0.439689   -0.046991    0.000159
      7          6           0        0.775014   -0.720524    0.000022
      8          6           0        1.069237   -2.178382    0.000262
      9          6           0       -1.730156   -0.711130    0.000203
     10          8           0       -1.899076   -1.907239   -0.000837
     11          8           0       -2.772255    0.149700    0.000693
     12          1           0        3.479694   -0.480464   -0.885885
     13          1           0        3.587536    1.057003   -0.005001
     14          1           0        3.480240   -0.471174    0.891937
     15          1           0       -1.652331    2.519574    0.875960
     16          1           0       -0.400598    3.424929   -0.000394
     17          1           0       -1.652597    2.519275   -0.876043
     18          1           0        0.616509   -2.651480    0.870134
     19          1           0        0.624953   -2.650315   -0.874673
     20          1           0        2.140337   -2.367604    0.005260
     21          1           0       -3.572659   -0.391419    0.000275
 ---------------------------------------------------------------------

 SCF Done:  E(RM062X) =  -532.724572071     A.U. after    1 cycles

 The electronic state is 1-A.
 Alpha  occ. eigenvalues --  -19.66797 -19.60865 -14.83565 -14.76714 -10.67527
 Alpha  occ. eigenvalues --  -10.59627 -10.58879 -10.57316 -10.54937 -10.53947
 Alpha  occ. eigenvalues --  -10.52858  -1.23426  -1.17746  -1.13585  -0.96719
 Alpha  occ. eigenvalues --   -0.92015  -0.84285  -0.82163  -0.78571  -0.73190
 Alpha  occ. eigenvalues --   -0.66977  -0.62529  -0.60150  -0.57598  -0.57204
 Alpha  occ. eigenvalues --   -0.55046  -0.53504  -0.50256  -0.49524  -0.49328
 Alpha  occ. eigenvalues --   -0.48919  -0.48302  -0.47311  -0.44969  -0.44795
 Alpha  occ. eigenvalues --   -0.43151  -0.39801  -0.37663  -0.34979  -0.30818
 Alpha  occ. eigenvalues --   -0.30611
 Alpha virt. eigenvalues --   -0.01045  -0.00034   0.00803   0.00856   0.01376
 Alpha virt. eigenvalues --    0.01721   0.02312   0.02646   0.02993   0.03418
 Alpha virt. eigenvalues --    0.04293   0.04980   0.05581   0.06034   0.06657

 Mulliken charges:
               1
     1  C   -1.030560
     2  N    0.380168
     3  N   -0.829909
     4  C    0.598034
     5  C   -0.925257
     6  C    2.431355
     7  C   -1.145035
     8  C   -0.969907
     9  C    0.206420
    10  O   -0.957208
    11  O   -0.502048
    12  H    0.285383
    13  H    0.487563
    14  H    0.285586
    15  H    0.253104
    16  H    0.219355
    17  H    0.253285
    18  H    0.243635
    19  H    0.244393
    20  H    0.187866
    21  H    0.283778
 Sum of Mulliken charges =   0.00000

 Dipole moment (field-independent basis, Debye):
    X=              1.8657    Y=             -0.4498    Z=              0.0012  Tot=              1.9192
 Quadrupole moment (field-independent basis, Debye-Ang):
   XX=            -52.5900   YY=            -70.2783   ZZ=            -65.3029
   XY=             -7.7545   XZ=             -0.0018   YZ=             -0.0040

  Exact polarizability:     129.968      -1.586     117.487       0.004       0.007      68.176
 Approx polarizability:     146.687       2.049     141.414       0.002       0.012      92.193

 Summary of Natural Population Analysis:

                                       Natural Population
                Natural  -----------------------------------------------
    Atom  No    Charge         Core      Valence    Rydberg      Total
 -----------------------------------------------------------------------
      C    1   -0.37826      1.99941     4.36515    0.01370     6.37826
      N    2   -0.19163      1.99935     5.16550    0.02678     7.19163
      N    3   -0.29731      1.99942     5.26812    0.02977     7.29731
      C    4    0.19915      1.99928     3.77139    0.03018     5.80085
      C    5   -0.61766      1.99943     4.60679    0.01145     6.61766
      C    6   -0.30777      1.99878     4.28532    0.02366     6.30777
      C    7    0.25485      1.99912     3.72336    0.02267     5.74515
      C    8   -0.63178      1.99943     4.62121    0.01115     6.63178
      C    9    0.80700      1.99934     3.16100    0.03266     5.19300
      O   10   -0.63143      1.99978     6.60037    0.03128     8.63143
      O   11   -0.70255      1.99979     6.67764    0.02512     8.70255
      H   12    0.20343      0.00000     0.79450    0.00207     0.79657
      H   13    0.23320      0.00000     0.76408    0.00272     0.76680
      H   14    0.20341      0.00000     0.79452    0.00207     0.79659
      H   15    0.22314      0.00000     0.77443    0.00243     0.77686
      H   16    0.22199      0.00000     0.77526    0.00275     0.77801
      H   17    0.22313      0.00000     0.77444    0.00243     0.77687
      H   18    0.24264      0.00000     0.75492    0.00245     0.75736
      H   19    0.24239      0.00000     0.75516    0.00245     0.75761
      H   20    0.20949      0.00000     0.78842    0.00209     0.79051
      H   21    0.49458      0.00000     0.50220    0.00322     0.50542
 =======================================================================
   * Total *    0.00000     21.99312    59.72378    0.28310    82.00000

                      1                      2                      3
                      A                      A                      A
 Frequencies --     68.4485                96.3857               112.4674
 Red. masses --      3.6124                 1.2218                 3.0129
 Frc consts  --      0.0100                 0.0067                 0.0225
 IR Inten    --      1.8632                 0.4164                 0.1094

                      4                      5                      6
                      A                      A                      A
 Frequencies --    120.2558               177.4810               178.6308
 Red. masses --      1.1450                 2.3258                 5.2955
 Frc consts  --      0.0098                 0.0432                 0.0996
 IR Inten    --      0.7587                 7.6928                 2.5311

                      7                      8                      9
                      A                      A                      A
 Frequencies --    208.2817               251.0098               281.6174
 Red. masses --      1.0767                 4.8601                 2.7743
 Frc consts  --      0.0275                 0.1804                 0.1296
 IR Inten    --      0.2631                 0.0943                 5.2813

                     10                     11                     12
                      A                      A                      A
 Frequencies --    302.5346               357.1391               379.0771
 Red. masses --      2.6484                 3.6771                 5.3419
 Frc consts  --      0.1428                 0.2763                 0.4523
 IR Inten    --      1.4591                 0.2959                 1.9156

                     13                     14                     15
                      A                      A                      A
 Frequencies --    426.8515               578.4695               601.6994
 Red. masses --      6.5122                 1.1932                 3.6734
 Frc consts  --      0.6991                 0.2352                 0.7836
 IR Inten    --      5.1802                82.1457                18.5054

                     16                     17                     18
                      A                      A                      A
 Frequencies --    605.8099               666.3842               677.1908
 Red. masses --      3.9644                 4.4095                 5.4229
 Frc consts  --      0.8572                 1.1537                 1.4652
 IR Inten    --      5.0081                 3.6683                 5.9208

                     19                     20                     21
                      A                      A                      A
 Frequencies --    700.6009               739.4341               820.1395
 Red. masses --      4.2905                 4.0178                 8.2846
 Frc consts  --      1.2408                 1.2943                 3.2832
 IR Inten    --      8.2674                56.4188                26.9991

                     22                     23                     24
                      A                      A                      A
 Frequencies --    878.6381              1026.1233              1049.0047
 Red. masses --      3.1480                 1.6538                 1.7044
 Frc consts  --      1.4319                 1.0260                 1.1051
 IR Inten    --      0.1266                13.0036                 1.2097

                     25                     26                     27
                      A                      A                      A
 Frequencies --   1057.4276              1070.8793              1071.2440
 Red. masses --      1.4984                 1.5621                 2.2589
 Frc consts  --      0.9871                 1.0555                 1.5273
 IR Inten    --      0.7999                 1.9495                 5.4274

                     28                     29                     30
                      A                      A                      A
 Frequencies --   1137.9543              1151.5197              1191.7347
 Red. masses --      6.2888                 1.3168                 2.3984
 Frc consts  --      4.7981                 1.0287                 2.0069
 IR Inten    --    160.4260                 0.1912               169.1054

                     31                     32                     33
                      A                      A                      A
 Frequencies --   1255.4704              1332.5244              1392.5528
 Red. masses --      1.9722                 4.4543                 2.3406
 Frc consts  --      1.8315                 4.6600                 2.6743
 IR Inten    --     46.6954                 4.6142                67.6489

                     34                     35                     36
                      A                      A                      A
 Frequencies --   1411.1699              1424.4147              1437.3132
 Red. masses --      1.3077                 1.5975                 1.7538
 Frc consts  --      1.5344                 1.9097                 2.1347
 IR Inten    --      3.9863                33.9932                 3.0829

                     37                     38                     39
                      A                      A                      A
 Frequencies --   1463.9109              1474.7762              1477.6795
 Red. masses --      1.8461                 1.0402                 1.1382
 Frc consts  --      2.3309                 1.3330                 1.4643
 IR Inten    --     21.8048                11.9994                36.0370

                     40                     41                     42
                      A                      A                      A
 Frequencies --   1487.9285              1501.4665              1501.6266
 Red. masses --      1.0418                 1.4269                 1.0473
 Frc consts  --      1.3589                 1.8953                 1.3913
 IR Inten    --      7.7332                13.0076                 5.7687

                     43                     44                     45
                      A                      A                      A
 Frequencies --   1510.2908              1545.7911              1581.8230
 Red. masses --      1.0759                 6.7373                 4.7630
 Frc consts  --      1.4459                 9.4850                 7.0218
 IR Inten    --     25.9156                33.9045                73.5302

                     46                     47                     48
                      A                      A                      A
 Frequencies --   1623.1746              1818.3172              3076.9774
 Red. masses --      8.3287                 9.5291                 1.0352
 Frc consts  --     12.9288                18.5628                 5.7749
 IR Inten    --    151.7373               462.3003                25.1421

                     49                     50                     51
                      A                      A                      A
 Frequencies --   3079.7837              3080.5333              3141.3954
 Red. masses --      1.0353                 1.0354                 1.1044
 Frc consts  --      5.7858                 5.7891                 6.4214
 IR Inten    --     16.4590                 9.2602                 9.5344

                     52                     53                     54
                      A                      A                      A
 Frequencies --   3141.8640              3142.1871              3163.9890
 Red. masses --      1.1008                 1.1014                 1.1032
 Frc consts  --      6.4021                 6.4072                 6.5071
 IR Inten    --      6.9183                 0.0168                 9.5327

                     55                     56                     57
                      A                      A                      A
 Frequencies --   3168.7192              3193.5398              3818.1631
 Red. masses --      1.1035                 1.1015                 1.0644
 Frc consts  --      6.5283                 6.6186                 9.1425
 IR Inten    --      6.7230                 0.2935               117.4862

 - Thermochemistry -
 -------------------
 Temperature   298.150 Kelvin.  Pressure   1.00000 Atm.
 Atom     1 has atomic number  6 and mass  12.00000

 Molecular mass:   154.07423 amu.
 Principal axes and moments of inertia in atomic units:
                           1         2         3
     Eigenvalues --  1094.530331785.627572846.77806
           X            0.99654  -0.08307   0.00001
           Y            0.08307   0.99654  -0.00001
           Z           -0.00001   0.00001   1.00000
 This molecule is an asymmetric top.
 Rotational symmetry number  1.
 Warning -- assumption of classical behavior for rotation
           may cause significant error
 Rotational temperatures (Kelvin)      0.07913     0.04851     0.03043
 Rotational constants (GHZ):           1.64887     1.01070     0.63396
 Zero-point vibrational energy     449986.2 (Joules/Mol)
                                  107.54928 (Kcal/Mol)
 Warning -- explicit consideration of  16 degrees of freedom as
           vibrations may cause significant error
 Vibrational temperatures:     98.48   138.68   161.82   173.02   255.36
          (Kelvin)            257.01   299.67   361.15   405.18   435.28
                              513.84   545.41   614.14   832.29   865.71
                              871.63   958.78   974.33  1008.01  1063.88
                             1180.00  1264.16  1476.36  1509.28  1521.40
                             1540.76  1541.28  1637.26  1656.78  1714.64
                             1806.34  1917.21  2003.57  2030.36  2049.42
                             2067.97  2106.24  2121.87  2126.05  2140.80
                             2160.28  2160.51  2172.97  2224.05  2275.89
                             2335.39  2616.15  4427.08  4431.12  4432.20
                             4519.77  4520.44  4520.91  4552.27  4559.08
                             4594.79  5493.49

 Zero-point correction=                           0.171391 (Hartree/Particle)
 Thermal correction to Energy=                    0.182608
 Thermal correction to Enthalpy=                  0.183553
 Thermal correction to Gibbs Free Energy=         0.134455
 Sum of electronic and zero-point Energies=           -532.553181
 Sum of electronic and thermal Energies=              -532.541964
 Sum of electronic and thermal Enthalpies=            -532.541019
 Sum of electronic and thermal Free Energies=         -532.590117

                     E (Thermal)             CV                S
                      KCal/Mol        Cal/Mol-Kelvin    Cal/Mol-Kelvin
 Total                  114.589             40.320            103.334
 Electronic               0.000              0.000              0.000
 Translational            0.889              2.981             41.006
 Rotational               0.889              2.981             30.099
 Vibrational            112.811             34.359             32.228
 Vibration     1          0.598              1.969              4.197
 Vibration     2          0.603              1.952              3.526
 Vibration     3          0.607              1.939              3.226
 Vibration     4          0.609              1.932              3.096
 Vibration     5          0.628              1.870              2.355
 Vibration     6          0.629              1.869              2.343
 Vibration     7          0.642              1.828              2.059
 Vibration     8          0.663              1.761              1.723
 Vibration     9          0.681              1.708              1.524
 Vibration    10          0.694              1.669              1.403
 Vibration    11          0.732              1.561              1.135
 Vibration    12          0.749              1.515              1.043
 Vibration    13          0.789              1.412              0.869
 Vibration    14          0.935              1.078              0.488
 Vibration    15          0.960              1.028              0.447
 Vibration    16          0.964              1.019              0.440

                           ! Non-Optimized Parameters !

 1\1\GINC-AE24\Freq\RM062X\Aug-CC-pVTZ\C7H10N2O2\DHUANG\04-Mar-2025\0\\
 #N Geom=AllCheck Guess=TCheck SCRF=Check GenChk RM062X/Aug-CC-pVTZ Fre
 q\\7\\0,1\C,1.0449983242,-2.9324846548,3.2072057787\N,-0.0548634048,-2
 .3098952643,2.5009540563\N,-1.081596079,-1.7861809834,3.2115306014\C,-
 1.9218327167,-1.2969010656,2.3222635463\C,-3.1836812675,-0.6350525079,
 2.759342156\C,-1.4237076761,-1.5112388634,1.0117889364\C,-0.2126343069
 ,-2.1705148987,1.1785394854\C,0.7671817191,-2.6569541571,0.1709404758\
 C,-1.9786104552,-1.1586885041,-0.2821106661\O,-1.4625438195,-1.3913382

 Normal termination of Gaussian 16 at Tue Mar  4 19:35:01 2025.
