 Gaussian 16, Revision C.01,
 Gaussian 16:  ES64L-G16RevC.01  3-Jul-2019

 ------------------------------------
 # opt freq m062x/aug-cc-pvtz pop=nbo
 ------------------------------------

 -
 8
 -
 Symbolic Z-matrix:
 Charge =  0 Multiplicity = 1

 SCF Done:  E(RM062X) =  -454.045470747     A.U. after   14 cycles
 SCF Done:  E(RM062X) =  -454.085192394     A.U. after   12 cycles
 SCF Done:  E(RM062X) =  -454.091886143     A.U. after   12 cycles
 SCF Done:  E(RM062X) =  -454.092372181     A.U. after   11 cycles
 SCF Done:  E(RM062X) =  -454.092442179     A.U. after   10 cycles
 SCF Done:  E(RM062X) =  -454.092452243     A.U. after    9 cycles
 SCF Done:  E(RM062X) =  -454.092453177     A.U. after    8 cycles
 SCF Done:  E(RM062X) =  -454.092454004     A.U. after    8 cycles
 Optimization completed.
    -- Stationary point found.
 Normal termination of Gaussian 16 at Tue Mar  4 17:43:35 2025.

 ----------------------------------------------------------------------
 #N Geom=AllCheck Guess=TCheck SCRF=Check GenChk RM062X/Aug-CC-pVTZ Fre
 q
 ----------------------------------------------------------------------

 Structure from the checkpoint file:  "8.chk"
 -
 8
 -
 Charge =  0 Multiplicity = 1

                         Standard orientation:
 ---------------------------------------------------------------------
 Center     Atomic      Atomic             Coordinates (Angstroms)
 Number     Number       Type             X           Y           Z
 ---------------------------------------------------------------------
      1          6           0        0.766575    2.055574   -0.000032
      2          7           0        0.910128    0.609381   -0.000018
      3          7           0        2.119423    0.070929    0.000001
      4          6           0        1.935162   -1.247519    0.000023
      5          6           0        0.576382   -1.566739    0.000020
      6          6           0       -0.059299   -0.340518   -0.000012
      7          6           0       -1.484152   -0.009059    0.000004
      8          8           0       -1.943658    1.103673    0.000075
      9          8           0       -2.250202   -1.113144   -0.000056
     10          1           0        0.221029    2.378253   -0.882572
     11          1           0        0.221159    2.378284    0.882579
     12          1           0        1.772326    2.461260   -0.000111
     13          1           0        2.787916   -1.904345    0.000039
     14          1           0        0.103999   -2.532147    0.000033
     15          1           0       -3.170419   -0.818132   -0.000023
 ---------------------------------------------------------------------

 SCF Done:  E(RM062X) =  -454.092454004     A.U. after    1 cycles

 The electronic state is 1-A.
 Alpha  occ. eigenvalues --  -19.68678 -19.63251 -14.84873 -14.78473 -10.69870
 Alpha  occ. eigenvalues --  -10.59373 -10.58134 -10.56665 -10.55083  -1.25675
 Alpha  occ. eigenvalues --   -1.19244  -1.15947  -0.95728  -0.91707  -0.80662
 Alpha  occ. eigenvalues --   -0.77434  -0.70740  -0.64809  -0.62756  -0.59370
 Alpha  occ. eigenvalues --   -0.58172  -0.54341  -0.54321  -0.52316  -0.50465
 Alpha  occ. eigenvalues --   -0.49219  -0.47563  -0.46454  -0.41746  -0.37812
 Alpha  occ. eigenvalues --   -0.37710  -0.32515  -0.32186
 Alpha virt. eigenvalues --   -0.01633  -0.00830   0.00430   0.00726   0.01902
 Alpha virt. eigenvalues --    0.02397   0.02905   0.03800   0.04790   0.05083
 Alpha virt. eigenvalues --    0.05953   0.06591   0.06724   0.07032   0.08095

 Mulliken charges:
               1
     1  C   -0.858239
     2  N    0.629080
     3  N   -0.874131
     4  C   -0.348358
     5  C   -0.304796
     6  C    0.360707
     7  C    0.581864
     8  O   -0.891118
     9  O   -0.523666
    10  H    0.300163
    11  H    0.300165
    12  H    0.434995
    13  H    0.622690
    14  H    0.283549
    15  H    0.287094
 Sum of Mulliken charges =   0.00000

 Dipole moment (field-independent basis, Debye):
    X=             -1.0165    Y=             -0.6487    Z=             -0.0001  Tot=              1.2059
 Quadrupole moment (field-independent basis, Debye-Ang):
   XX=            -51.2739   YY=            -48.0506   ZZ=            -53.0379
   XY=              2.5837   XZ=              0.0002   YZ=             -0.0005

  Exact polarizability:      97.997      -4.542      92.129       0.000       0.000      50.968
 Approx polarizability:     116.900      -6.527     116.134       0.000       0.000      66.994

 Summary of Natural Population Analysis:

                                       Natural Population
                Natural  -----------------------------------------------
    Atom  No    Charge         Core      Valence    Rydberg      Total
 -----------------------------------------------------------------------
      C    1   -0.36976      1.99941     4.35621    0.01414     6.36976
      N    2   -0.14727      1.99942     5.11790    0.02996     7.14727
      N    3   -0.23894      1.99951     5.20680    0.03263     7.23894
      C    4   -0.05896      1.99940     4.03561    0.02395     6.05896
      C    5   -0.27024      1.99918     4.25540    0.01566     6.27024
      C    6   -0.00724      1.99898     3.98132    0.02694     6.00724
      C    7    0.78760      1.99937     3.18016    0.03287     5.21240
      O    8   -0.60580      1.99977     6.57426    0.03176     8.60580
      O    9   -0.68835      1.99979     6.66255    0.02601     8.68835
      H   10    0.21600      0.00000     0.78177    0.00223     0.78400
      H   11    0.21600      0.00000     0.78177    0.00223     0.78400
      H   12    0.22212      0.00000     0.77498    0.00290     0.77788
      H   13    0.20929      0.00000     0.78768    0.00303     0.79071
      H   14    0.23710      0.00000     0.75940    0.00350     0.76290
      H   15    0.49844      0.00000     0.49851    0.00305     0.50156
 =======================================================================
   * Total *    0.00000     17.99482    47.75431    0.25087    66.00000

                      1                      2                      3
                      A                      A                      A
 Frequencies --     70.2887               171.6527               184.8157
 Red. masses --      7.0137                 1.4053                 2.9604
 Frc consts  --      0.0204                 0.0244                 0.0596
 IR Inten    --      1.8133                 1.3568                 0.0732

                      4                      5                      6
                      A                      A                      A
 Frequencies --    205.0612               242.2855               348.5216
 Red. masses --      5.3409                 2.6362                 3.7848
 Frc consts  --      0.1323                 0.0912                 0.2709
 IR Inten    --      2.3874                 7.0537                 4.4203

                      7                      8                      9
                      A                      A                      A
 Frequencies --    435.3263               534.6456               559.5003
 Red. masses --      7.8452                 4.5943                 1.2480
 Frc consts  --      0.8760                 0.7737                 0.2302
 IR Inten    --      3.8669                 6.7164                69.1320

                     10                     11                     12
                      A                      A                      A
 Frequencies --    659.7753               686.2377               705.0701
 Red. masses --      3.1537                 6.2008                 4.5971
 Frc consts  --      0.8088                 1.7205                 1.3465
 IR Inten    --     28.6885                 1.0792                57.6249

                     13                     14                     15
                      A                      A                      A
 Frequencies --    757.5559               800.7728               846.6315
 Red. masses --      4.1835                 2.7327                 1.7393
 Frc consts  --      1.4145                 1.0324                 0.7345
 IR Inten    --     14.6931                68.5241                10.3396

                     16                     17                     18
                      A                      A                      A
 Frequencies --    928.4917               952.0736              1052.9140
 Red. masses --      1.3799                 4.9021                 1.6498
 Frc consts  --      0.7009                 2.6180                 1.0776
 IR Inten    --      1.4947                 6.1948                31.1822

                     19                     20                     21
                      A                      A                      A
 Frequencies --   1065.5819              1145.1690              1155.1681
 Red. masses --      1.6222                 3.3277                 1.3212
 Frc consts  --      1.0853                 2.5712                 1.0387
 IR Inten    --     39.8917               173.0393                 0.0599

                     22                     23                     24
                      A                      A                      A
 Frequencies --   1216.0525              1238.3746              1338.0825
 Red. masses --      1.5326                 1.7821                 5.0049
 Frc consts  --      1.3353                 1.6102                 5.2797
 IR Inten    --     28.8918               127.3975                24.3788

                     25                     26                     27
                      A                      A                      A
 Frequencies --   1379.6462              1403.6972              1441.3045
 Red. masses --      5.3353                 3.4124                 2.0778
 Frc consts  --      5.9834                 3.9615                 2.5432
 IR Inten    --     11.0070               113.1267                28.8567

                     28                     29                     30
                      A                      A                      A
 Frequencies --   1467.0967              1492.6044              1507.7837
 Red. masses --      1.7205                 1.0388                 1.1694
 Frc consts  --      2.1818                 1.3635                 1.5664
 IR Inten    --      9.5725                10.8661                27.5146

                     31                     32                     33
                      A                      A                      A
 Frequencies --   1533.8606              1591.3540              1839.2975
 Red. masses --      5.1743                 6.1242                10.1034
 Frc consts  --      7.1726                 9.1375                20.1382
 IR Inten    --     54.8827                61.0342               401.2589

                     34                     35                     36
                      A                      A                      A
 Frequencies --   3097.6943              3170.1890              3201.9264
 Red. masses --      1.0319                 1.1055                 1.1062
 Frc consts  --      5.8340                 6.5459                 6.6817
 IR Inten    --     13.9062                 4.5806                 0.8352

                     37                     38                     39
                      A                      A                      A
 Frequencies --   3274.5670              3302.8647              3818.5865
 Red. masses --      1.0950                 1.1022                 1.0645
 Frc consts  --      6.9181                 7.0844                 9.1457
 IR Inten    --      1.5486                 1.1193               132.0387

 - Thermochemistry -
 -------------------
 Temperature   298.150 Kelvin.  Pressure   1.00000 Atm.
 Atom     1 has atomic number  6 and mass  12.00000

 Molecular mass:   126.04293 amu.
 Principal axes and moments of inertia in atomic units:
                           1         2         3
     Eigenvalues --   623.501811146.980081759.26825
           X            0.99986   0.01668   0.00000
           Y           -0.01668   0.99986   0.00000
           Z            0.00000   0.00000   1.00000
 This molecule is an asymmetric top.
 Rotational symmetry number  1.
 Warning -- assumption of classical behavior for rotation
           may cause significant error
 Rotational temperatures (Kelvin)      0.13892     0.07551     0.04923
 Rotational constants (GHZ):           2.89452     1.57347     1.02585
 Zero-point vibrational energy     303986.2 (Joules/Mol)
                                   72.65444 (Kcal/Mol)
 Warning -- explicit consideration of   9 degrees of freedom as
           vibrations may cause significant error
 Vibrational temperatures:    101.13   246.97   265.91   295.04   348.59
          (Kelvin)            501.44   626.34   769.24   805.00   949.27
                              987.34  1014.44  1089.95  1152.13  1218.11
                             1335.89  1369.82  1514.91  1533.13  1647.64
                             1662.03  1749.63  1781.74  1925.20  1985.00
                             2019.61  2073.72  2110.82  2147.52  2169.36
                             2206.88  2289.60  2646.34  4456.89  4561.19
                             4606.86  4711.37  4752.09  5494.09

 Zero-point correction=                           0.115782 (Hartree/Particle)
 Thermal correction to Energy=                    0.123545
 Thermal correction to Enthalpy=                  0.124489
 Thermal correction to Gibbs Free Energy=         0.083077
 Sum of electronic and zero-point Energies=           -453.976672
 Sum of electronic and thermal Energies=              -453.968909
 Sum of electronic and thermal Enthalpies=            -453.967965
 Sum of electronic and thermal Free Energies=         -454.009377

                     E (Thermal)             CV                S
                      KCal/Mol        Cal/Mol-Kelvin    Cal/Mol-Kelvin
 Total                   77.526             28.274             87.160
 Electronic               0.000              0.000              0.000
 Translational            0.889              2.981             40.408
 Rotational               0.889              2.981             28.622
 Vibrational             75.748             22.312             18.130
 Vibration     1          0.598              1.968              4.145
 Vibration     2          0.626              1.877              2.417
 Vibration     3          0.631              1.861              2.279
 Vibration     4          0.640              1.833              2.087
 Vibration     5          0.658              1.775              1.786
 Vibration     6          0.726              1.578              1.173
 Vibration     7          0.796              1.393              0.841
 Vibration     8          0.890              1.173              0.577
 Vibration     9          0.915              1.119              0.525

 Optimization completed.
    -- Stationary point found.
 Normal termination of Gaussian 16 at Tue Mar  4 18:13:09 2025.
