 Gaussian 16, Revision C.01,
 Gaussian 16:  ES64L-G16RevC.01  3-Jul-2019

 ------------------------------------
 # opt freq m062x/aug-cc-pvtz pop=nbo
 ------------------------------------

 -
 9
 -
 Symbolic Z-matrix:
 Charge =  0 Multiplicity = 1

 SCF Done:  E(RM062X) =  -493.355175418     A.U. after   13 cycles
 SCF Done:  E(RM062X) =  -493.395897230     A.U. after   12 cycles
 SCF Done:  E(RM062X) =  -493.403162424     A.U. after   12 cycles
 SCF Done:  E(RM062X) =  -493.403694236     A.U. after   11 cycles
 SCF Done:  E(RM062X) =  -493.403768848     A.U. after   10 cycles
 SCF Done:  E(RM062X) =  -493.403781265     A.U. after    9 cycles
 SCF Done:  E(RM062X) =  -493.403782321     A.U. after    8 cycles
 Optimization completed.
    -- Stationary point found.
 Normal termination of Gaussian 16 at Tue Mar  4 17:59:33 2025.

 ----------------------------------------------------------------------
 #N Geom=AllCheck Guess=TCheck SCRF=Check GenChk RM062X/Aug-CC-pVTZ Fre
 q
 ----------------------------------------------------------------------

 Structure from the checkpoint file:  "9.chk"
 -
 9
 -
 Charge =  0 Multiplicity = 1

                         Standard orientation:
 ---------------------------------------------------------------------
 Center     Atomic      Atomic             Coordinates (Angstroms)
 Number     Number       Type             X           Y           Z
 ---------------------------------------------------------------------
      1          6           0       -2.085845   -1.398849   -0.000103
      2          7           0       -1.306229   -0.172601   -0.000060
      3          7           0       -1.924960    0.992719    0.000026
      4          6           0       -0.965003    1.915133    0.000084
      5          6           0        0.310148    1.341386    0.000014
      6          6           0        0.047485   -0.022104   -0.000083
      7          6           0        1.621530    2.054829    0.000036
      8          6           0        0.945883   -1.172828   -0.000036
      9          8           0        0.608788   -2.329461    0.000285
     10          8           0        2.240099   -0.800394   -0.000180
     11          1           0       -1.856362   -1.990584   -0.882049
     12          1           0       -1.857131   -1.990186    0.882322
     13          1           0       -3.127163   -1.095553   -0.000607
     14          1           0       -1.224435    2.961043    0.000155
     15          1           0        1.456537    3.130487    0.000087
     16          1           0        2.213939    1.795380    0.876139
     17          1           0        2.213925    1.795454   -0.876097
     18          1           0        2.762732   -1.613424   -0.000022
 ---------------------------------------------------------------------

 SCF Done:  E(RM062X) =  -493.403782321     A.U. after    1 cycles

 The electronic state is 1-A.
 Alpha  occ. eigenvalues --  -19.68466 -19.62819 -14.84439 -14.78156 -10.69488
 Alpha  occ. eigenvalues --  -10.58734 -10.57793 -10.55986 -10.55689 -10.53982
 Alpha  occ. eigenvalues --   -1.25362  -1.18916  -1.15554  -0.95391  -0.92370
 Alpha  occ. eigenvalues --   -0.83738  -0.77868  -0.76724  -0.68483  -0.64791
 Alpha  occ. eigenvalues --   -0.60945  -0.59173  -0.57963  -0.54394  -0.54004
 Alpha  occ. eigenvalues --   -0.51186  -0.50460  -0.49364  -0.48392  -0.46451
 Alpha  occ. eigenvalues --   -0.46165  -0.44122  -0.41481  -0.37448  -0.37090
 Alpha  occ. eigenvalues --   -0.31878  -0.30763
 Alpha virt. eigenvalues --   -0.01304  -0.00933   0.00423   0.00545   0.01353
 Alpha virt. eigenvalues --    0.01972   0.02773   0.02922   0.03011   0.04664
 Alpha virt. eigenvalues --    0.04925   0.05946   0.06379   0.06745   0.07147

 Mulliken charges:
               1
     1  C   -0.990230
     2  N    0.438900
     3  N   -1.038953
     4  C   -0.490640
     5  C    1.325061
     6  C    0.056155
     7  C   -0.901011
     8  C    0.483229
     9  O   -0.929266
    10  O   -0.464914
    11  H    0.299178
    12  H    0.299196
    13  H    0.428043
    14  H    0.657128
    15  H    0.060253
    16  H    0.241326
    17  H    0.241333
    18  H    0.285214
 Sum of Mulliken charges =   0.00000

 Dipole moment (field-independent basis, Debye):
    X=              1.5665    Y=              0.1752    Z=             -0.0004  Tot=              1.5763
 Quadrupole moment (field-independent basis, Debye-Ang):
   XX=            -54.7318   YY=            -58.1827   ZZ=            -59.2214
   XY=              2.3554   XZ=              0.0007   YZ=              0.0018

  Exact polarizability:     106.294       1.485     113.508      -0.001      -0.001      59.543
 Approx polarizability:     126.079      -0.817     138.720      -0.002      -0.001      79.641

 Summary of Natural Population Analysis:

                                       Natural Population
                Natural  -----------------------------------------------
    Atom  No    Charge         Core      Valence    Rydberg      Total
 -----------------------------------------------------------------------
      C    1   -0.36900      1.99941     4.35547    0.01413     6.36900
      N    2   -0.14191      1.99943     5.11327    0.02922     7.14191
      N    3   -0.23357      1.99951     5.20128    0.03279     7.23357
      C    4   -0.06135      1.99926     4.03909    0.02300     6.06135
      C    5   -0.06737      1.99911     4.04469    0.02358     6.06737
      C    6   -0.01727      1.99886     3.99332    0.02509     6.01727
      C    7   -0.60722      1.99944     4.59587    0.01192     6.60722
      C    8    0.78874      1.99937     3.17953    0.03237     5.21126
      O    9   -0.61172      1.99977     6.58007    0.03188     8.61172
      O   10   -0.69311      1.99979     6.66806    0.02527     8.69311
      H   11    0.21519      0.00000     0.78255    0.00226     0.78481
      H   12    0.21517      0.00000     0.78257    0.00226     0.78483
      H   13    0.22084      0.00000     0.77619    0.00298     0.77916
      H   14    0.20629      0.00000     0.79066    0.00305     0.79371
      H   15    0.21097      0.00000     0.78666    0.00237     0.78903
      H   16    0.22350      0.00000     0.77397    0.00253     0.77650
      H   17    0.22351      0.00000     0.77397    0.00253     0.77649
      H   18    0.49833      0.00000     0.49855    0.00312     0.50167
 =======================================================================
   * Total *    0.00000     19.99393    53.73576    0.27032    74.00000

                      1                      2                      3
                      A                      A                      A
 Frequencies --     66.1474               131.5503               145.8165
 Red. masses --      6.9870                 3.1370                 1.0372
 Frc consts  --      0.0180                 0.0320                 0.0130
 IR Inten    --      1.6042                 3.3596                 0.0142

                      4                      5                      6
                      A                      A                      A
 Frequencies --    170.8330               194.7970               213.9943
 Red. masses --      1.1129                 4.8093                 3.7579
 Frc consts  --      0.0191                 0.1075                 0.1014
 IR Inten    --      0.0156                 0.8864                 3.2309

                      7                      8                      9
                      A                      A                      A
 Frequencies --    286.4787               312.4567               360.3734
 Red. masses --      2.9968                 3.7371                 4.4922
 Frc consts  --      0.1449                 0.2150                 0.3437
 IR Inten    --      5.5226                 0.1742                 1.7798

                     10                     11                     12
                      A                      A                      A
 Frequencies --    434.1038               560.1512               564.1986
 Red. masses --      6.5776                 4.1483                 1.2253
 Frc consts  --      0.7303                 0.7669                 0.2298
 IR Inten    --      3.0556                 3.7397                63.8770

                     13                     14                     15
                      A                      A                      A
 Frequencies --    615.0777               671.6911               687.9695
 Red. masses --      4.3045                 4.3138                 4.5159
 Frc consts  --      0.9595                 1.1467                 1.2593
 IR Inten    --      9.1822                35.3343                12.5317

                     16                     17                     18
                      A                      A                      A
 Frequencies --    736.4707               795.7693               817.6321
 Red. masses --      3.8624                 5.2980                 9.2438
 Frc consts  --      1.2343                 1.9767                 3.6410
 IR Inten    --     57.3566                 6.3069                20.1877

                     19                     20                     21
                      A                      A                      A
 Frequencies --    886.8862              1012.4545              1047.2272
 Red. masses --      1.2988                 1.5313                 2.5498
 Frc consts  --      0.6019                 0.9248                 1.6476
 IR Inten    --     16.5160                 0.4536                68.5946

                     22                     23                     24
                      A                      A                      A
 Frequencies --   1066.8056              1116.0647              1147.4677
 Red. masses --      1.4974                 2.2331                 5.2472
 Frc consts  --      1.0040                 1.6389                 4.0706
 IR Inten    --      1.0638                 7.2229               170.0323

                     25                     26                     27
                      A                      A                      A
 Frequencies --   1152.8751              1215.3933              1237.3996
 Red. masses --      1.3213                 1.4908                 1.8839
 Frc consts  --      1.0347                 1.2975                 1.6995
 IR Inten    --      0.0458                18.5566               103.8102

                     28                     29                     30
                      A                      A                      A
 Frequencies --   1376.5785              1385.1571              1399.2630
 Red. masses --      3.2878                 4.4717                 2.9241
 Frc consts  --      3.6708                 5.0550                 3.3732
 IR Inten    --     51.8080                26.9561                15.1028

                     31                     32                     33
                      A                      A                      A
 Frequencies --   1425.3478              1438.6770              1464.6132
 Red. masses --      1.6011                 2.4020                 1.5572
 Frc consts  --      1.9165                 2.9292                 1.9681
 IR Inten    --      3.1821                36.9578                27.4641

                     34                     35                     36
                      A                      A                      A
 Frequencies --   1487.0525              1488.4954              1499.4688
 Red. masses --      1.0417                 1.0391                 1.2665
 Frc consts  --      1.3572                 1.3564                 1.6777
 IR Inten    --      4.8948                13.5860                65.6288

                     37                     38                     39
                      A                      A                      A
 Frequencies --   1510.2665              1544.0334              1616.0086
 Red. masses --      1.1646                 4.2841                 7.7585
 Frc consts  --      1.5651                 6.0176                11.9375
 IR Inten    --     18.4090                67.8541                 9.6091

                     40                     41                     42
                      A                      A                      A
 Frequencies --   1832.9499              3075.3085              3097.2191
 Red. masses --      9.9574                 1.0353                 1.0319
 Frc consts  --     19.7104                 5.7689                 5.8319
 IR Inten    --    459.5477                17.9611                16.2102

                     43                     44                     45
                      A                      A                      A
 Frequencies --   3137.3849              3151.4829              3169.3777
 Red. masses --      1.1011                 1.1030                 1.1055
 Frc consts  --      6.3858                 6.4544                 6.5427
 IR Inten    --      6.0362                12.1300                 4.9009

                     46                     47                     48
                      A                      A                      A
 Frequencies --   3201.2379              3266.1683              3815.3845
 Red. masses --      1.1060                 1.0973                 1.0645
 Frc consts  --      6.6781                 6.8968                 9.1298
 IR Inten    --      1.0238                 2.6412               129.0346

 - Thermochemistry -
 -------------------
 Temperature   298.150 Kelvin.  Pressure   1.00000 Atm.
 Atom     1 has atomic number  6 and mass  12.00000

 Molecular mass:   140.05858 amu.
 Principal axes and moments of inertia in atomic units:
                           1         2         3
     Eigenvalues --  1048.514771156.873972183.13484
           X            0.73406   0.67908   0.00000
           Y           -0.67908   0.73406   0.00000
           Z            0.00000   0.00000   1.00000
 This molecule is an asymmetric top.
 Rotational symmetry number  1.
 Warning -- assumption of classical behavior for rotation
           may cause significant error
 Rotational temperatures (Kelvin)      0.08261     0.07487     0.03967
 Rotational constants (GHZ):           1.72124     1.56002     0.82667
 Zero-point vibrational energy     377000.5 (Joules/Mol)
                                   90.10528 (Kcal/Mol)
 Warning -- explicit consideration of  13 degrees of freedom as
           vibrations may cause significant error
 Vibrational temperatures:     95.17   189.27   209.80   245.79   280.27
          (Kelvin)            307.89   412.18   449.56   518.50   624.58
                              805.93   811.76   884.96   966.41   989.83
                             1059.62  1144.93  1176.39  1276.03  1456.70
                             1506.73  1534.90  1605.77  1650.95  1658.73
                             1748.68  1780.34  1980.59  1992.93  2013.23
                             2050.76  2069.94  2107.25  2139.54  2141.61
                             2157.40  2172.94  2221.52  2325.08  2637.21
                             4424.68  4456.21  4514.00  4534.28  4560.03
                             4605.87  4699.29  5489.49

 Zero-point correction=                           0.143592 (Hartree/Particle)
 Thermal correction to Energy=                    0.153064
 Thermal correction to Enthalpy=                  0.154008
 Thermal correction to Gibbs Free Energy=         0.108867
 Sum of electronic and zero-point Energies=           -493.260190
 Sum of electronic and thermal Energies=              -493.250718
 Sum of electronic and thermal Enthalpies=            -493.249774
 Sum of electronic and thermal Free Energies=         -493.294916

                     E (Thermal)             CV                S
                      KCal/Mol        Cal/Mol-Kelvin    Cal/Mol-Kelvin
 Total                   96.049             34.298             95.009
 Electronic               0.000              0.000              0.000
 Translational            0.889              2.981             40.722
 Rotational               0.889              2.981             29.361
 Vibrational             94.272             28.337             24.925
 Vibration     1          0.598              1.970              4.265
 Vibration     2          0.612              1.922              2.923
 Vibration     3          0.617              1.907              2.726
 Vibration     4          0.626              1.878              2.426
 Vibration     5          0.635              1.847              2.182
 Vibration     6          0.644              1.820              2.009
 Vibration     7          0.684              1.699              1.495
 Vibration     8          0.701              1.650              1.349
 Vibration     9          0.735              1.554              1.120
 Vibration    10          0.795              1.396              0.845
 Vibration    11          0.916              1.118              0.524
 Vibration    12          0.920              1.109              0.516
 Vibration    13          0.975              1.000              0.424

 Optimization completed.
    -- Stationary point found.
 Normal termination of Gaussian 16 at Tue Mar  4 18:51:13 2025.
