 Gaussian 16, Revision C.01,
 Gaussian 16:  ES64L-G16RevC.01  3-Jul-2019

 ------------------------------------
 # opt freq m062x/aug-cc-pvtz pop=nbo
 ------------------------------------

 -
 H
 -
 Symbolic Z-matrix:
 Charge =  0 Multiplicity = 1

 SCF Done:  E(RM062X) =  -420.788640835     A.U. after   13 cycles
 SCF Done:  E(RM062X) =  -420.816633099     A.U. after   12 cycles
 SCF Done:  E(RM062X) =  -420.818766090     A.U. after   11 cycles
 SCF Done:  E(RM062X) =  -420.818896148     A.U. after   10 cycles
 SCF Done:  E(RM062X) =  -420.818906103     A.U. after    9 cycles
 Optimization completed.
    -- Stationary point found.
 Normal termination of Gaussian 16 at Wed Apr  2 12:12:27 2025.

 ----------------------------------------------------------------------
 #N Geom=AllCheck Guess=TCheck SCRF=Check GenChk RM062X/Aug-CC-pVTZ Fre
 q
 ----------------------------------------------------------------------

 Structure from the checkpoint file:  "H.chk"
 -
 H
 -
 Charge =  0 Multiplicity = 1

                         Standard orientation:
 ---------------------------------------------------------------------
 Center     Atomic      Atomic             Coordinates (Angstroms)
 Number     Number       Type             X           Y           Z
 ---------------------------------------------------------------------
      1          6           0        0.511155    1.217162   -0.000028
      2          6           0        1.895127    1.178560   -0.000070
      3          6           0        2.553935   -0.044833   -0.000033
      4          6           0        1.830040   -1.229586    0.000045
      5          6           0        0.444238   -1.195848    0.000079
      6          6           0       -0.214245    0.029930    0.000048
      7          6           0       -1.696707    0.122870    0.000112
      8          8           0       -2.319575    1.150260    0.000078
      9          8           0       -2.302053   -1.080861   -0.000161
     10          1           0       -0.027471    2.154465   -0.000046
     11          1           0        2.461623    2.099250   -0.000129
     12          1           0        3.635128   -0.074526   -0.000064
     13          1           0        2.345736   -2.179721    0.000076
     14          1           0       -0.129819   -2.110784    0.000136
     15          1           0       -3.253431   -0.913414   -0.000230
 ---------------------------------------------------------------------

 SCF Done:  E(RM062X) =  -420.818906103     A.U. after    1 cycles

 The electronic state is 1-A.
 Alpha  occ. eigenvalues --  -19.67821 -19.62150 -10.68395 -10.56627 -10.56047
 Alpha  occ. eigenvalues --  -10.56037 -10.55807 -10.55626 -10.55570  -1.24633
 Alpha  occ. eigenvalues --   -1.14910  -0.98293  -0.87895  -0.86149  -0.76031
 Alpha  occ. eigenvalues --   -0.70881  -0.67826  -0.62368  -0.58810  -0.56522
 Alpha  occ. eigenvalues --   -0.54697  -0.53436  -0.52330  -0.50520  -0.48479
 Alpha  occ. eigenvalues --   -0.45532  -0.43213  -0.41649  -0.40769  -0.36613
 Alpha  occ. eigenvalues --   -0.32663  -0.32424
 Alpha virt. eigenvalues --   -0.02742  -0.00772   0.00047   0.00670   0.00754
 Alpha virt. eigenvalues --    0.01882   0.02769   0.03223   0.03740   0.05316
 Alpha virt. eigenvalues --    0.05755   0.06039   0.06314   0.07224   0.07560

 Mulliken charges:
               1
     1  C   -1.003034
     2  C   -0.165589
     3  C   -0.213773
     4  C   -0.229452
     5  C   -0.562349
     6  C    1.772445
     7  C    0.333863
     8  O   -0.910854
     9  O   -0.517215
    10  H    0.304726
    11  H    0.173253
    12  H    0.224093
    13  H    0.154825
    14  H    0.335032
    15  H    0.304030
 Sum of Mulliken charges =   0.00000

 Dipole moment (field-independent basis, Debye):
    X=              1.5009    Y=             -1.4342    Z=             -0.0001  Tot=              2.0759
 Quadrupole moment (field-independent basis, Debye-Ang):
   XX=            -44.7242   YY=            -50.4453   ZZ=            -54.7301
   XY=              5.4744   XZ=              0.0004   YZ=             -0.0007

  Exact polarizability:     115.788      -1.358      94.775      -0.001      -0.001      51.975
 Approx polarizability:     136.528      -3.486     129.513      -0.001      -0.001      69.183

 Summary of Natural Population Analysis:

                                       Natural Population
                Natural  -----------------------------------------------
    Atom  No    Charge         Core      Valence    Rydberg      Total
 -----------------------------------------------------------------------
      C    1   -0.15298      1.99921     4.13714    0.01663     6.15298
      C    2   -0.20962      1.99928     4.19306    0.01728     6.20962
      C    3   -0.17921      1.99929     4.16246    0.01747     6.17921
      C    4   -0.21085      1.99928     4.19411    0.01746     6.21085
      C    5   -0.16260      1.99921     4.14680    0.01659     6.16260
      C    6   -0.18103      1.99900     4.15525    0.02678     6.18103
      C    7    0.80505      1.99939     3.16206    0.03350     5.19495
      O    8   -0.60280      1.99977     6.57115    0.03187     8.60280
      O    9   -0.70145      1.99978     6.67672    0.02495     8.70145
      H   10    0.23333      0.00000     0.76384    0.00283     0.76667
      H   11    0.21296      0.00000     0.78455    0.00249     0.78704
      H   12    0.21060      0.00000     0.78690    0.00250     0.78940
      H   13    0.21240      0.00000     0.78507    0.00253     0.78760
      H   14    0.22791      0.00000     0.76920    0.00289     0.77209
      H   15    0.49829      0.00000     0.49835    0.00336     0.50171
 =======================================================================
   * Total *    0.00000     17.99420    45.78666    0.21914    64.00000

                      1                      2                      3
                      A                      A                      A
 Frequencies --     65.1411               159.7667               220.6806
 Red. masses --      7.0023                 4.4823                 5.5424
 Frc consts  --      0.0175                 0.0674                 0.1590
 IR Inten    --      1.1699                 0.7626                 1.6288

                      4                      5                      6
                      A                      A                      A
 Frequencies --    387.9207               410.7680               434.3241
 Red. masses --      7.9363                 2.8243                 3.0236
 Frc consts  --      0.7037                 0.2808                 0.3360
 IR Inten    --      4.6770                 0.3100                10.2832

                      7                      8                      9
                      A                      A                      A
 Frequencies --    501.2081               587.8860               628.6843
 Red. masses --      7.1668                 1.2116                 6.3716
 Frc consts  --      1.0607                 0.2467                 1.4838
 IR Inten    --      5.5136                65.8289                 0.0796

                     10                     11                     12
                      A                      A                      A
 Frequencies --    646.0468               706.0568               737.8665
 Red. masses --      4.8513                 2.5465                 1.6746
 Frc consts  --      1.1930                 0.7479                 0.5372
 IR Inten    --     51.5493                 4.4050               133.1319

                     13                     14                     15
                      A                      A                      A
 Frequencies --    787.6472               839.7889               882.5385
 Red. masses --      4.5110                 3.1394                 1.2470
 Frc consts  --      1.6489                 1.3045                 0.5722
 IR Inten    --     14.2310                 0.0490                 0.0165

                     16                     17                     18
                      A                      A                      A
 Frequencies --    980.8150              1019.1330              1023.9743
 Red. masses --      1.4461                 1.3837                 6.1947
 Frc consts  --      0.8196                 0.8468                 3.8269
 IR Inten    --      1.0284                 0.0230                 1.0723

                     19                     20                     21
                      A                      A                      A
 Frequencies --   1034.5243              1059.0006              1106.3901
 Red. masses --      1.2984                 2.2805                 1.5836
 Frc consts  --      0.8188                 1.5068                 1.1421
 IR Inten    --      0.0112                 9.4464                35.1630

                     22                     23                     24
                      A                      A                      A
 Frequencies --   1138.9694              1176.9540              1194.8359
 Red. masses --      3.4264                 1.1579                 1.1861
 Frc consts  --      2.6189                 0.9450                 0.9977
 IR Inten    --     71.2962                 0.7887                79.5626

                     25                     26                     27
                      A                      A                      A
 Frequencies --   1221.3127              1331.6091              1347.7176
 Red. masses --      1.6188                 4.3519                 1.4372
 Frc consts  --      1.4226                 4.5465                 1.5380
 IR Inten    --    154.3219                 2.3929                 3.8309

                     28                     29                     30
                      A                      A                      A
 Frequencies --   1394.2676              1495.2830              1539.3887
 Red. masses --      2.9687                 2.3732                 2.4592
 Frc consts  --      3.4003                 3.1264                 3.4335
 IR Inten    --    163.1604                18.0058                 3.6035

                     31                     32                     33
                      A                      A                      A
 Frequencies --   1657.5160              1675.9840              1848.0264
 Red. masses --      6.2845                 5.9889                10.3909
 Frc consts  --     10.1728                 9.9115                20.9084
 IR Inten    --      3.8509                15.4911               391.1211

                     34                     35                     36
                      A                      A                      A
 Frequencies --   3202.5390              3214.9815              3222.3152
 Red. masses --      1.0865                 1.0897                 1.0936
 Frc consts  --      6.5653                 6.6360                 6.6900
 IR Inten    --      0.5773                 5.6001                 4.3174

                     37                     38                     39
                      A                      A                      A
 Frequencies --   3231.1858              3238.1714              3819.4282
 Red. masses --      1.0960                 1.0950                 1.0646
 Frc consts  --      6.7421                 6.7648                 9.1502
 IR Inten    --      4.8838                 2.3671               124.8302

 - Thermochemistry -
 -------------------
 Temperature   298.150 Kelvin.  Pressure   1.00000 Atm.
 Atom     1 has atomic number  6 and mass  12.00000

 Molecular mass:   122.03678 amu.
 Principal axes and moments of inertia in atomic units:
                           1         2         3
     Eigenvalues --   460.738521458.654081919.39260
           X            0.99995   0.01039   0.00000
           Y           -0.01039   0.99995   0.00000
           Z            0.00000   0.00000   1.00000
 This molecule is an asymmetric top.
 Rotational symmetry number  1.
 Warning -- assumption of classical behavior for rotation
           may cause significant error
 Rotational temperatures (Kelvin)      0.18799     0.05938     0.04513
 Rotational constants (GHZ):           3.91706     1.23726     0.94027
 Zero-point vibrational energy     306068.4 (Joules/Mol)
                                   73.15211 (Kcal/Mol)
 Warning -- explicit consideration of   8 degrees of freedom as
           vibrations may cause significant error
 Vibrational temperatures:     93.72   229.87   317.51   558.13   591.00
          (Kelvin)            624.90   721.13   845.84   904.54   929.52
                             1015.86  1061.63  1133.25  1208.27  1269.78
                             1411.17  1466.31  1473.27  1488.45  1523.67
                             1591.85  1638.72  1693.37  1719.10  1757.20
                             1915.89  1939.07  2006.04  2151.38  2214.84
                             2384.80  2411.37  2658.90  4607.74  4625.64
                             4636.19  4648.96  4659.01  5495.31

 Zero-point correction=                           0.116575 (Hartree/Particle)
 Thermal correction to Energy=                    0.123659
 Thermal correction to Enthalpy=                  0.124603
 Thermal correction to Gibbs Free Energy=         0.084541
 Sum of electronic and zero-point Energies=           -420.702331
 Sum of electronic and thermal Energies=              -420.695247
 Sum of electronic and thermal Enthalpies=            -420.694303
 Sum of electronic and thermal Free Energies=         -420.734365

                     E (Thermal)             CV                S
                      KCal/Mol        Cal/Mol-Kelvin    Cal/Mol-Kelvin
 Total                   77.597             27.065             84.318
 Electronic               0.000              0.000              0.000
 Translational            0.889              2.981             40.312
 Rotational               0.889              2.981             28.647
 Vibrational             75.820             21.103             15.359
 Vibration     1          0.597              1.971              4.295
 Vibration     2          0.622              1.892              2.553
 Vibration     3          0.647              1.810              1.954
 Vibration     4          0.756              1.496              1.008
 Vibration     5          0.775              1.447              0.924
 Vibration     6          0.795              1.395              0.845
 Vibration     7          0.857              1.247              0.655
 Vibration     8          0.945              1.058              0.471

 Optimization completed.
    -- Stationary point found.
 Normal termination of Gaussian 16 at Wed Apr  2 12:42:23 2025.
