 Gaussian 16, Revision C.01,
 Gaussian 16:  ES64L-G16RevC.01  3-Jul-2019

 ------------------------------------
 # opt freq m062x/aug-cc-pvtz pop=nbo
 ------------------------------------

 ----
 m-CN
 ----
 Symbolic Z-matrix:
 Charge =  0 Multiplicity = 1

 SCF Done:  E(RM062X) =  -513.021671762     A.U. after   14 cycles
 SCF Done:  E(RM062X) =  -513.059980904     A.U. after   13 cycles
 SCF Done:  E(RM062X) =  -513.065073693     A.U. after   12 cycles
 SCF Done:  E(RM062X) =  -513.065302275     A.U. after   11 cycles
 SCF Done:  E(RM062X) =  -513.065321806     A.U. after   10 cycles
 SCF Done:  E(RM062X) =  -513.065323077     A.U. after    9 cycles
 SCF Done:  E(RM062X) =  -513.065323198     A.U. after    8 cycles
 Optimization completed.
    -- Stationary point found.
 Normal termination of Gaussian 16 at Wed Apr  2 12:36:46 2025.

 ----------------------------------------------------------------------
 #N Geom=AllCheck Guess=TCheck SCRF=Check GenChk RM062X/Aug-CC-pVTZ Fre
 q
 ----------------------------------------------------------------------

 Structure from the checkpoint file:  "m-CN.chk"
 ----
 m-CN
 ----
 Charge =  0 Multiplicity = 1

                         Standard orientation:
 ---------------------------------------------------------------------
 Center     Atomic      Atomic             Coordinates (Angstroms)
 Number     Number       Type             X           Y           Z
 ---------------------------------------------------------------------
      1          6           0       -0.717854    1.545368    0.000016
      2          6           0        0.532147    2.142395    0.000033
      3          6           0        1.674720    1.358551    0.000023
      4          6           0        1.560787   -0.030767   -0.000004
      5          6           0        0.308344   -0.637151   -0.000017
      6          6           0       -0.828005    0.158754   -0.000009
      7          6           0       -2.194396   -0.432741   -0.000035
      8          8           0       -3.209069    0.207670   -0.000081
      9          8           0       -2.181809   -1.776192    0.000091
     10          6           0        2.745689   -0.842281   -0.000017
     11          7           0        3.694890   -1.486578   -0.000027
     12          1           0       -1.623357    2.135977    0.000018
     13          1           0        0.619245    3.219345    0.000054
     14          1           0        2.656357    1.810748    0.000034
     15          1           0        0.224175   -1.713676   -0.000034
     16          1           0       -3.102220   -2.070940    0.000090
 ---------------------------------------------------------------------

 SCF Done:  E(RM062X) =  -513.065323198     A.U. after    1 cycles

 The electronic state is 1-A.
 Alpha  occ. eigenvalues --  -19.69476 -19.63891 -14.76279 -10.70213 -10.61057
 Alpha  occ. eigenvalues --  -10.59213 -10.59156 -10.59109 -10.58817 -10.58459
 Alpha  occ. eigenvalues --  -10.58086  -1.26375  -1.16731  -1.03718  -1.00929
 Alpha  occ. eigenvalues --   -0.91179  -0.89787  -0.78533  -0.75639  -0.71872
 Alpha  occ. eigenvalues --   -0.65736  -0.60901  -0.59285  -0.58739  -0.56529
 Alpha  occ. eigenvalues --   -0.56155  -0.54021  -0.50522  -0.49816  -0.46802
 Alpha  occ. eigenvalues --   -0.46074  -0.44539  -0.43768  -0.42200  -0.41825
 Alpha  occ. eigenvalues --   -0.38355  -0.35310  -0.34098
 Alpha virt. eigenvalues --   -0.05283  -0.03366  -0.01365  -0.00539   0.00787
 Alpha virt. eigenvalues --    0.01503   0.02251   0.02472   0.03544   0.04190
 Alpha virt. eigenvalues --    0.04820   0.05164   0.05491   0.05589   0.06000

 Mulliken charges:
               1
     1  C   -0.668478
     2  C   -0.250551
     3  C   -0.654375
     4  C    1.387033
     5  C   -0.758999
     6  C    1.506476
     7  C    0.492457
     8  O   -0.916858
     9  O   -0.523627
    10  C    0.647626
    11  N   -0.995497
    12  H    0.138745
    13  H    0.286135
    14  H   -0.061475
    15  H    0.072064
    16  H    0.299325
 Sum of Mulliken charges =   0.00000

 Dipole moment (field-independent basis, Debye):
    X=             -2.0602    Y=              1.8171    Z=              0.0001  Tot=              2.7471
 Quadrupole moment (field-independent basis, Debye-Ang):
   XX=            -79.0544   YY=            -56.2120   ZZ=            -63.9191
   XY=             16.0093   XZ=             -0.0003   YZ=              0.0002

  Exact polarizability:     142.598      -8.468     112.816       0.000       0.000      58.144
 Approx polarizability:     170.983     -16.035     148.936       0.000       0.000      78.394

 Summary of Natural Population Analysis:

                                       Natural Population
                Natural  -----------------------------------------------
    Atom  No    Charge         Core      Valence    Rydberg      Total
 -----------------------------------------------------------------------
      C    1   -0.13190      1.99921     4.11619    0.01650     6.13190
      C    2   -0.20361      1.99927     4.18749    0.01684     6.20361
      C    3   -0.12844      1.99920     4.11394    0.01530     6.12844
      C    4   -0.17787      1.99892     4.15819    0.02077     6.17787
      C    5   -0.11601      1.99913     4.09854    0.01834     6.11601
      C    6   -0.17141      1.99899     4.14632    0.02609     6.17141
      C    7    0.80507      1.99939     3.16270    0.03284     5.19493
      O    8   -0.59197      1.99977     6.56026    0.03194     8.59197
      O    9   -0.69662      1.99978     6.67189    0.02494     8.69662
      C   10    0.26870      1.99925     3.69709    0.03497     5.73130
      N   11   -0.28948      1.99961     5.25804    0.03183     7.28948
      H   12    0.23923      0.00000     0.75801    0.00276     0.76077
      H   13    0.22178      0.00000     0.77591    0.00231     0.77822
      H   14    0.22668      0.00000     0.77091    0.00241     0.77332
      H   15    0.24339      0.00000     0.75366    0.00294     0.75661
      H   16    0.50244      0.00000     0.49438    0.00318     0.49756
 =======================================================================
   * Total *    0.00000     21.99253    53.72351    0.28396    76.00000

                      1                      2                      3
                      A                      A                      A
 Frequencies --     57.6884               122.9013               134.6550
 Red. masses --     11.8349                10.1109                 5.5738
 Frc consts  --      0.0232                 0.0900                 0.0595
 IR Inten    --      4.1872                 6.7924                 0.5997

                      4                      5                      6
                      A                      A                      A
 Frequencies --    175.0316               232.6668               380.0407
 Red. masses --      4.8063                 6.2262                 8.8724
 Frc consts  --      0.0868                 0.1986                 0.7550
 IR Inten    --      1.9297                 1.0815                 6.7630

                      7                      8                      9
                      A                      A                      A
 Frequencies --    394.0883               426.7324               444.6385
 Red. masses --      4.4328                 3.2299                 9.0771
 Frc consts  --      0.4056                 0.3465                 1.0573
 IR Inten    --      0.6740                 9.8853                 1.3952

                     10                     11                     12
                      A                      A                      A
 Frequencies --    506.4389               566.0052               588.2040
 Red. masses --      7.7602                 2.1253                 6.7934
 Frc consts  --      1.1727                 0.4012                 1.3848
 IR Inten    --      3.5849                14.3205                 6.8726

                     13                     14                     15
                      A                      A                      A
 Frequencies --    616.9249               656.4855               699.0504
 Red. masses --      1.9097                 5.2323                 2.3054
 Frc consts  --      0.4282                 1.3286                 0.6638
 IR Inten    --     85.1230                39.9378                 8.6208

                     16                     17                     18
                      A                      A                      A
 Frequencies --    731.6406               787.8416               855.3958
 Red. masses --      5.4266                 3.1960                 1.7454
 Frc consts  --      1.7115                 1.1688                 0.7524
 IR Inten    --     22.5017                72.9919                 4.4492

                     19                     20                     21
                      A                      A                      A
 Frequencies --    905.1767               965.7490               988.4026
 Red. masses --      4.8686                 1.4930                 1.4056
 Frc consts  --      2.3503                 0.8204                 0.8091
 IR Inten    --      2.4480                 5.6584                 0.0042

                     22                     23                     24
                      A                      A                      A
 Frequencies --   1023.0669              1036.2159              1114.4010
 Red. masses --      6.2602                 1.3629                 1.9677
 Frc consts  --      3.8606                 0.8622                 1.4398
 IR Inten    --      0.9907                 0.1057                58.5826

                     25                     26                     27
                      A                      A                      A
 Frequencies --   1135.1065              1188.9622              1195.3909
 Red. masses --      1.7389                 1.1561                 1.8764
 Frc consts  --      1.3201                 0.9629                 1.5797
 IR Inten    --      9.4990                 3.6013               210.6811

                     28                     29                     30
                      A                      A                      A
 Frequencies --   1250.4361              1309.6600              1338.8929
 Red. masses --      2.7504                 2.2643                 2.1116
 Frc consts  --      2.5338                 2.2883                 2.2303
 IR Inten    --     33.6508                 2.6653                 2.7725

                     31                     32                     33
                      A                      A                      A
 Frequencies --   1400.7853              1475.1476              1530.2464
 Red. masses --      3.2156                 3.5393                 2.7085
 Frc consts  --      3.7176                 4.5377                 3.7369
 IR Inten    --    181.9248                 3.1350                11.7440

                     34                     35                     36
                      A                      A                      A
 Frequencies --   1656.7700              1676.5131              1856.2271
 Red. masses --      6.2844                 6.3163                10.6321
 Frc consts  --     10.1634                10.4598                21.5841
 IR Inten    --      9.0036                 3.3328               395.6624

                     37                     38                     39
                      A                      A                      A
 Frequencies --   2409.4634              3215.9481              3226.3903
 Red. masses --     12.6852                 1.0882                 1.0925
 Frc consts  --     43.3897                 6.6311                 6.7003
 IR Inten    --     25.9071                 1.4174                 1.1233

                     40                     41                     42
                      A                      A                      A
 Frequencies --   3235.2751              3241.2961              3817.4196
 Red. masses --      1.0976                 1.0930                 1.0647
 Frc consts  --      6.7687                 6.7656                 9.1412
 IR Inten    --      1.7394                 2.6365               142.5109

 - Thermochemistry -
 -------------------
 Temperature   298.150 Kelvin.  Pressure   1.00000 Atm.
 Atom     1 has atomic number  6 and mass  12.00000

 Molecular mass:   147.03203 amu.
 Principal axes and moments of inertia in atomic units:
                           1         2         3
     Eigenvalues --   818.806222436.195603255.00182
           X            0.99979   0.02055   0.00000
           Y           -0.02055   0.99979   0.00000
           Z            0.00000   0.00000   1.00000
 This molecule is an asymmetric top.
 Rotational symmetry number  1.
 Warning -- assumption of classical behavior for rotation
           may cause significant error
 Rotational temperatures (Kelvin)      0.10578     0.03555     0.02661
 Rotational constants (GHZ):           2.20411     0.74080     0.55445
 Zero-point vibrational energy     302472.0 (Joules/Mol)
                                   72.29255 (Kcal/Mol)
 Warning -- explicit consideration of  13 degrees of freedom as
           vibrations may cause significant error
 Vibrational temperatures:     83.00   176.83   193.74   251.83   334.76
          (Kelvin)            546.79   567.01   613.97   639.74   728.65
                              814.36   846.29   887.62   944.54  1005.78
                             1052.67  1133.53  1230.72  1302.35  1389.50
                             1422.09  1471.97  1490.88  1603.37  1633.17
                             1710.65  1719.90  1799.10  1884.31  1926.37
                             2015.42  2122.41  2201.68  2383.72  2412.13
                             2670.70  3466.68  4627.03  4642.06  4654.84
                             4663.50  5492.42

 Zero-point correction=                           0.115206 (Hartree/Particle)
 Thermal correction to Energy=                    0.124072
 Thermal correction to Enthalpy=                  0.125016
 Thermal correction to Gibbs Free Energy=         0.080474
 Sum of electronic and zero-point Energies=           -512.950118
 Sum of electronic and thermal Energies=              -512.941251
 Sum of electronic and thermal Enthalpies=            -512.940307
 Sum of electronic and thermal Free Energies=         -512.984849

                     E (Thermal)             CV                S
                      KCal/Mol        Cal/Mol-Kelvin    Cal/Mol-Kelvin
 Total                   77.856             33.112             93.746
 Electronic               0.000              0.000              0.000
 Translational            0.889              2.981             40.867
 Rotational               0.889              2.981             30.252
 Vibrational             76.079             27.150             22.627
 Vibration     1          0.596              1.974              4.535
 Vibration     2          0.610              1.930              3.054
 Vibration     3          0.613              1.919              2.878
 Vibration     4          0.627              1.873              2.381
 Vibration     5          0.653              1.791              1.858
 Vibration     6          0.750              1.513              1.039
 Vibration     7          0.761              1.483              0.985
 Vibration     8          0.788              1.412              0.869
 Vibration     9          0.804              1.373              0.812
 Vibration    10          0.862              1.236              0.642
 Vibration    11          0.922              1.105              0.512
 Vibration    12          0.945              1.057              0.470
 Vibration    13          0.977              0.996              0.421

 Optimization completed.
    -- Stationary point found.
 Normal termination of Gaussian 16 at Wed Apr  2 13:15:48 2025.
