 Gaussian 16, Revision C.01,
 Gaussian 16:  ES64L-G16RevC.01  3-Jul-2019

 ------------------------------------
 # opt freq m062x/aug-cc-pvtz pop=nbo
 ------------------------------------

 -----
 o-CF3
 -----
 Symbolic Z-matrix:
 Charge =  0 Multiplicity = 1

 SCF Done:  E(RM062X) =  -757.861139479     A.U. after   13 cycles
 SCF Done:  E(RM062X) =  -757.891529961     A.U. after   12 cycles
 SCF Done:  E(RM062X) =  -757.894392611     A.U. after   11 cycles
 SCF Done:  E(RM062X) =  -757.893331041     A.U. after   12 cycles
 SCF Done:  E(RM062X) =  -757.895736227     A.U. after   10 cycles
 SCF Done:  E(RM062X) =  -757.895833037     A.U. after    9 cycles
 SCF Done:  E(RM062X) =  -757.895832343     A.U. after    9 cycles
 SCF Done:  E(RM062X) =  -757.895815476     A.U. after   10 cycles
 SCF Done:  E(RM062X) =  -757.895834668     A.U. after    9 cycles
 SCF Done:  E(RM062X) =  -757.895840641     A.U. after    9 cycles
 Optimization completed.
    -- Stationary point found.
 Normal termination of Gaussian 16 at Wed Apr  2 13:33:17 2025.

 ----------------------------------------------------------------------
 #N Geom=AllCheck Guess=TCheck SCRF=Check GenChk RM062X/Aug-CC-pVTZ Fre
 q
 ----------------------------------------------------------------------

 Structure from the checkpoint file:  "o-CF3.chk"
 -----
 o-CF3
 -----
 Charge =  0 Multiplicity = 1

                         Standard orientation:
 ---------------------------------------------------------------------
 Center     Atomic      Atomic             Coordinates (Angstroms)
 Number     Number       Type             X           Y           Z
 ---------------------------------------------------------------------
      1          6           0       -2.239035    0.046551   -0.000041
      2          6           0       -2.654737   -1.273466    0.000020
      3          6           0       -1.709349   -2.282036    0.000089
      4          6           0       -0.359459   -1.963055    0.000075
      5          6           0        0.068622   -0.642081    0.000013
      6          6           0       -0.889468    0.386098   -0.000040
      7          6           0       -0.642421    1.867705   -0.000076
      8          8           0       -1.531224    2.676678   -0.000139
      9          8           0        0.642311    2.224365    0.000293
     10          9           0        1.988993    0.239152   -1.083580
     11          6           0        1.570658   -0.419113   -0.000042
     12          9           0        2.230436   -1.588589   -0.000150
     13          9           0        1.989107    0.239013    1.083537
     14          1           0       -2.956766    0.853646   -0.000091
     15          1           0       -3.709919   -1.507503    0.000016
     16          1           0       -2.011840   -3.319879    0.000145
     17          1           0        0.372499   -2.754965    0.000108
     18          1           0        0.671641    3.190551    0.000346
 ---------------------------------------------------------------------

 SCF Done:  E(RM062X) =  -757.895840641     A.U. after    1 cycles

 The electronic state is 1-A.
 Alpha  occ. eigenvalues --  -25.28105 -25.27776 -25.27775 -19.68611 -19.63002
 Alpha  occ. eigenvalues --  -10.80559 -10.69731 -10.59798 -10.59263 -10.57547
 Alpha  occ. eigenvalues --  -10.57460 -10.57231 -10.57143  -1.47195  -1.37779
 Alpha  occ. eigenvalues --   -1.37698  -1.25925  -1.15950  -1.00608  -0.90824
 Alpha  occ. eigenvalues --   -0.89241  -0.82049  -0.77457  -0.73746  -0.70905
 Alpha  occ. eigenvalues --   -0.69604  -0.68813  -0.67609  -0.61367  -0.59882
 Alpha  occ. eigenvalues --   -0.58202  -0.58179  -0.56787  -0.55826  -0.54690
 Alpha  occ. eigenvalues --   -0.54457  -0.53525  -0.51711  -0.51495  -0.49855
 Alpha  occ. eigenvalues --   -0.49093  -0.47239  -0.44186  -0.43504  -0.41477
 Alpha  occ. eigenvalues --   -0.37808  -0.34651  -0.34083
 Alpha virt. eigenvalues --   -0.04603  -0.01200  -0.00992  -0.00062   0.00612
 Alpha virt. eigenvalues --    0.01765   0.02553   0.02877   0.03803   0.04713
 Alpha virt. eigenvalues --    0.04718   0.05402   0.05705   0.06627   0.06742

 Mulliken charges:
               1
     1  C   -0.989998
     2  C   -0.342764
     3  C   -0.292248
     4  C   -0.615586
     5  C    0.804427
     6  C    1.608840
     7  C    0.264812
     8  O   -0.942857
     9  O   -0.439643
    10  F   -0.316964
    11  C    0.814562
    12  F   -0.307171
    13  F   -0.316946
    14  H    0.250780
    15  H    0.186664
    16  H    0.166281
    17  H    0.186657
    18  H    0.281154
 Sum of Mulliken charges =   0.00000

 Dipole moment (field-independent basis, Debye):
    X=             -1.6268    Y=             -1.6981    Z=              0.0003  Tot=              2.3516
 Quadrupole moment (field-independent basis, Debye-Ang):
   XX=            -72.2308   YY=            -65.2041   ZZ=            -74.8076
   XY=              9.7574   XZ=             -0.0003   YZ=              0.0009

  Exact polarizability:     115.103       4.725     123.616       0.002      -0.001      62.266
 Approx polarizability:     144.972       0.032     152.412       0.002      -0.003      84.258

 Summary of Natural Population Analysis:

                                       Natural Population
                Natural  -----------------------------------------------
    Atom  No    Charge         Core      Valence    Rydberg      Total
 -----------------------------------------------------------------------
      C    1   -0.14982      1.99922     4.13104    0.01956     6.14982
      C    2   -0.19134      1.99926     4.17520    0.01688     6.19134
      C    3   -0.17328      1.99927     4.15688    0.01713     6.17328
      C    4   -0.18865      1.99920     4.16942    0.02003     6.18865
      C    5   -0.10682      1.99892     4.08087    0.02703     6.10682
      C    6   -0.14932      1.99892     4.12381    0.02659     6.14932
      C    7    0.80748      1.99942     3.16020    0.03290     5.19252
      O    8   -0.60222      1.99977     6.57065    0.03181     8.60222
      O    9   -0.68190      1.99977     6.65583    0.02629     8.68190
      F   10   -0.33687      1.99992     7.32919    0.00775     9.33687
      C   11    1.04791      1.99928     2.90247    0.05034     4.95209
      F   12   -0.35013      1.99993     7.34294    0.00727     9.35013
      F   13   -0.33686      1.99992     7.32919    0.00775     9.33686
      H   14    0.24215      0.00000     0.75492    0.00293     0.75785
      H   15    0.21749      0.00000     0.78013    0.00238     0.78251
      H   16    0.21620      0.00000     0.78133    0.00247     0.78380
      H   17    0.23323      0.00000     0.76376    0.00301     0.76677
      H   18    0.50276      0.00000     0.49390    0.00335     0.49724
 =======================================================================
   * Total *    0.00000     25.99281    69.70174    0.30545    96.00000

 ******    1 imaginary frequencies (negative Signs) ******

                      1                      2                      3
                      A                      A                      A
 Frequencies --    -42.0389               103.0164               112.5609
 Red. masses --     12.6714                 5.4584                 9.0207
 Frc consts  --      0.0132                 0.0341                 0.0673
 IR Inten    --      2.2560                 0.0842                 0.1056

                      4                      5                      6
                      A                      A                      A
 Frequencies --    183.2209               190.9056               238.4810
 Red. masses --      6.3903                13.1061                 7.7075
 Frc consts  --      0.1264                 0.2814                 0.2583
 IR Inten    --      1.1319                 0.8306                 0.5348

                      7                      8                      9
                      A                      A                      A
 Frequencies --    312.1452               333.2522               368.1273
 Red. masses --      8.0336                 5.8568                14.9659
 Frc consts  --      0.4612                 0.3832                 1.1950
 IR Inten    --      0.8588                 0.6137                 0.3384

                     10                     11                     12
                      A                      A                      A
 Frequencies --    432.6378               432.7153               514.1666
 Red. masses --      8.6821                 3.1522                 6.2817
 Frc consts  --      0.9575                 0.3478                 0.9784
 IR Inten    --     13.7312                 6.0592                 2.0741

                     13                     14                     15
                      A                      A                      A
 Frequencies --    518.0466               596.3519               599.9606
 Red. masses --      9.0155                 1.2570                 9.4411
 Frc consts  --      1.4255                 0.2634                 2.0023
 IR Inten    --      5.8524                63.0064                 1.2960

                     16                     17                     18
                      A                      A                      A
 Frequencies --    612.6797               648.1829               673.9727
 Red. masses --      5.0181                 5.6023                 6.5051
 Frc consts  --      1.1098                 1.3868                 1.7410
 IR Inten    --      1.0667                25.8882                20.1495

                     19                     20                     21
                      A                      A                      A
 Frequencies --    735.4941               769.2617               801.0629
 Red. masses --      3.0476                 6.2379                 1.7599
 Frc consts  --      0.9713                 2.1749                 0.6654
 IR Inten    --     67.3700                32.9703                51.9722

                     22                     23                     24
                      A                      A                      A
 Frequencies --    821.2522               834.4230               936.3947
 Red. masses --      6.5317                 3.0624                 1.4645
 Frc consts  --      2.5955                 1.2563                 0.7566
 IR Inten    --      4.6213                 0.0056                 1.3602

                     25                     26                     27
                      A                      A                      A
 Frequencies --   1018.8962              1044.3354              1068.9860
 Red. masses --      1.3824                 1.3408                 7.7951
 Frc consts  --      0.8455                 0.8616                 5.2483
 IR Inten    --      2.5956                 0.0069                54.0586

                     28                     29                     30
                      A                      A                      A
 Frequencies --   1090.8424              1143.4881              1158.5577
 Red. masses --      2.8879                 1.9605                 3.4677
 Frc consts  --      2.0246                 1.5104                 2.7424
 IR Inten    --     14.8666                 1.0123                70.0133

                     31                     32                     33
                      A                      A                      A
 Frequencies --   1189.4534              1213.8788              1226.9127
 Red. masses --      1.1470                 3.8413                12.8938
 Frc consts  --      0.9562                 3.3349                11.4356
 IR Inten    --      3.2539               292.2643               253.3057

                     34                     35                     36
                      A                      A                      A
 Frequencies --   1228.6721              1306.8499              1328.0795
 Red. masses --      1.7802                 1.6916                 6.5823
 Frc consts  --      1.5834                 1.7021                 6.8403
 IR Inten    --     77.1064                68.6411                 5.4813

                     37                     38                     39
                      A                      A                      A
 Frequencies --   1346.6482              1410.9177              1494.4340
 Red. masses --      3.3686                 3.1401                 2.4886
 Frc consts  --      3.5993                 3.6829                 3.2746
 IR Inten    --    248.0870               265.1769                 7.4429

                     40                     41                     42
                      A                      A                      A
 Frequencies --   1543.9787              1651.5506              1677.3455
 Red. masses --      2.8605                 6.7967                 6.1441
 Frc consts  --      4.0177                10.9228                10.1849
 IR Inten    --      8.6982                 9.2098                12.6837

                     43                     44                     45
                      A                      A                      A
 Frequencies --   1838.6438              3212.0773              3226.2712
 Red. masses --     10.5566                 1.0876                 1.0937
 Frc consts  --     21.0267                 6.6116                 6.7070
 IR Inten    --    359.0252                 1.9300                 2.9703

                     46                     47                     48
                      A                      A                      A
 Frequencies --   3238.8135              3253.6731              3812.9933
 Red. masses --      1.0944                 1.0930                 1.0645
 Frc consts  --      6.7637                 6.8171                 9.1182
 IR Inten    --      3.8902                 1.1583               137.3804

 - Thermochemistry -
 -------------------
 Temperature   298.150 Kelvin.  Pressure   1.00000 Atm.
 Atom     1 has atomic number  6 and mass  12.00000

 Molecular mass:   190.02416 amu.
 Principal axes and moments of inertia in atomic units:
                           1         2         3
     Eigenvalues --  1775.977512097.786973555.13978
           X            0.98840   0.15186   0.00000
           Y           -0.15186   0.98840   0.00000
           Z            0.00000   0.00000   1.00000
 This molecule is an asymmetric top.
 Rotational symmetry number  1.
 Warning -- assumption of classical behavior for rotation
           may cause significant error
 Rotational temperatures (Kelvin)      0.04877     0.04129     0.02436
 Rotational constants (GHZ):           1.01620     0.86031     0.50764
    1 imaginary frequencies ignored.
 Zero-point vibrational energy     319968.8 (Joules/Mol)
                                   76.47439 (Kcal/Mol)
 Warning -- explicit consideration of  15 degrees of freedom as
           vibrations may cause significant error
 Vibrational temperatures:    148.22   161.95   263.61   274.67   343.12
          (Kelvin)            449.11   479.48   529.65   622.47   622.58
                              739.77   745.35   858.02   863.21   881.51
                              932.59   969.70  1058.21  1106.80  1152.55
                             1181.60  1200.55  1347.26  1465.96  1502.57
                             1538.03  1569.48  1645.22  1666.91  1711.36
                             1746.50  1765.25  1767.79  1880.27  1910.81
                             1937.53  2030.00  2150.16  2221.44  2376.21
                             2413.33  2645.40  4621.46  4641.88  4659.93
                             4681.31  5486.05

 Zero-point correction=                           0.121870 (Hartree/Particle)
 Thermal correction to Energy=                    0.131381
 Thermal correction to Enthalpy=                  0.132325
 Thermal correction to Gibbs Free Energy=         0.086668
 Sum of electronic and zero-point Energies=           -757.773971
 Sum of electronic and thermal Energies=              -757.764460
 Sum of electronic and thermal Enthalpies=            -757.763516
 Sum of electronic and thermal Free Energies=         -757.809172

                     E (Thermal)             CV                S
                      KCal/Mol        Cal/Mol-Kelvin    Cal/Mol-Kelvin
 Total                   82.443             37.334             96.092
 Electronic               0.000              0.000              0.000
 Translational            0.889              2.981             41.632
 Rotational               0.889              2.981             30.961
 Vibrational             80.665             31.372             23.500
 Vibration     1          0.605              1.947              3.396
 Vibration     2          0.607              1.939              3.224
 Vibration     3          0.631              1.863              2.295
 Vibration     4          0.634              1.852              2.219
 Vibration     5          0.656              1.782              1.814
 Vibration     6          0.700              1.651              1.351
 Vibration     7          0.715              1.609              1.244
 Vibration     8          0.741              1.538              1.088
 Vibration     9          0.794              1.399              0.850
 Vibration    10          0.794              1.399              0.850
 Vibration    11          0.869              1.219              0.624
 Vibration    12          0.873              1.210              0.615
 Vibration    13          0.954              1.040              0.456
 Vibration    14          0.958              1.032              0.450
 Vibration    15          0.972              1.005              0.428

 Optimization completed.
    -- Stationary point found.
 Normal termination of Gaussian 16 at Wed Apr  2 14:32:41 2025.
