 Gaussian 16, Revision C.01,
 Gaussian 16:  ES64L-G16RevC.01  3-Jul-2019

 ------------------------------------
 # opt freq m062x/aug-cc-pvtz pop=nbo
 ------------------------------------

 ---
 o-F
 ---
 Symbolic Z-matrix:
 Charge =  0 Multiplicity = 1

 SCF Done:  E(RM062X) =  -520.034650738     A.U. after   14 cycles
 SCF Done:  E(RM062X) =  -520.062559582     A.U. after   12 cycles
 SCF Done:  E(RM062X) =  -520.064844659     A.U. after   11 cycles
 SCF Done:  E(RM062X) =  -520.064985253     A.U. after   10 cycles
 SCF Done:  E(RM062X) =  -520.064999584     A.U. after   10 cycles
 SCF Done:  E(RM062X) =  -520.065001555     A.U. after    9 cycles
 Optimization completed.
    -- Stationary point found.
 Normal termination of Gaussian 16 at Wed Apr  2 12:22:48 2025.

 ----------------------------------------------------------------------
 #N Geom=AllCheck Guess=TCheck SCRF=Check GenChk RM062X/Aug-CC-pVTZ Fre
 q
 ----------------------------------------------------------------------

 Structure from the checkpoint file:  "o-F.chk"
 ---
 o-F
 ---
 Charge =  0 Multiplicity = 1

                         Standard orientation:
 ---------------------------------------------------------------------
 Center     Atomic      Atomic             Coordinates (Angstroms)
 Number     Number       Type             X           Y           Z
 ---------------------------------------------------------------------
      1          6           0        0.540818   -1.442234   -0.000014
      2          6           0        1.921672   -1.417629    0.000019
      3          6           0        2.585748   -0.196550    0.000032
      4          6           0        1.869686    0.987574    0.000011
      5          6           0        0.487080    0.943059   -0.000021
      6          6           0       -0.206290   -0.263382   -0.000037
      7          6           0       -1.687955   -0.409108   -0.000084
      8          8           0       -2.245762   -1.473984    0.000000
      9          8           0       -2.358309    0.750410    0.000082
     10          9           0       -0.159080    2.109231   -0.000038
     11          1           0       -0.004430   -2.375502   -0.000028
     12          1           0        2.480184   -2.342243    0.000035
     13          1           0        3.666548   -0.164487    0.000059
     14          1           0        2.355957    1.952361    0.000021
     15          1           0       -3.298528    0.524999    0.000148
 ---------------------------------------------------------------------

 SCF Done:  E(RM062X) =  -520.065001555     A.U. after    1 cycles

 The electronic state is 1-A.
 Alpha  occ. eigenvalues --  -25.26873 -19.68052 -19.62450 -10.69158 -10.65266
 Alpha  occ. eigenvalues --  -10.57745 -10.57210 -10.56799 -10.56423 -10.55979
 Alpha  occ. eigenvalues --   -1.39093  -1.25118  -1.15289  -0.99399  -0.89106
 Alpha  occ. eigenvalues --   -0.86903  -0.77211  -0.72618  -0.69976  -0.65231
 Alpha  occ. eigenvalues --   -0.61171  -0.59742  -0.58761  -0.57277  -0.55763
 Alpha  occ. eigenvalues --   -0.54717  -0.52405  -0.50256  -0.49167  -0.45639
 Alpha  occ. eigenvalues --   -0.44932  -0.42869  -0.40932  -0.37342  -0.33643
 Alpha  occ. eigenvalues --   -0.32231
 Alpha virt. eigenvalues --   -0.03326  -0.00776   0.00049   0.00644   0.00723
 Alpha virt. eigenvalues --    0.01884   0.03007   0.03074   0.03881   0.05464
 Alpha virt. eigenvalues --    0.05929   0.06004   0.06293   0.07021   0.07099

 Mulliken charges:
               1
     1  C   -0.811495
     2  C   -0.200021
     3  C   -0.074089
     4  C   -0.572606
     5  C    0.300634
     6  C    1.724789
     7  C    0.430595
     8  O   -0.902035
     9  O   -0.481829
    10  F   -0.534817
    11  H    0.083788
    12  H    0.180469
    13  H    0.111279
    14  H    0.448209
    15  H    0.297132
 Sum of Mulliken charges =   0.00000

 Dipole moment (field-independent basis, Debye):
    X=              2.0044    Y=              0.2788    Z=              0.0000  Tot=              2.0237
 Quadrupole moment (field-independent basis, Debye-Ang):
   XX=            -46.3662   YY=            -58.9902   ZZ=            -58.1588
   XY=             -4.2702   XZ=             -0.0001   YZ=              0.0001

  Exact polarizability:     115.944       1.263      96.274       0.000       0.000      51.630
 Approx polarizability:     136.582       2.644     131.691       0.001       0.000      69.056

 Summary of Natural Population Analysis:

                                       Natural Population
                Natural  -----------------------------------------------
    Atom  No    Charge         Core      Valence    Rydberg      Total
 -----------------------------------------------------------------------
      C    1   -0.13240      1.99924     4.11642    0.01675     6.13240
      C    2   -0.23024      1.99927     4.21374    0.01723     6.23024
      C    3   -0.15925      1.99930     4.14260    0.01736     6.15925
      C    4   -0.27813      1.99916     4.26093    0.01804     6.27813
      C    5    0.45299      1.99856     3.52034    0.02811     5.54701
      C    6   -0.24742      1.99888     4.22265    0.02590     6.24742
      C    7    0.80819      1.99942     3.15877    0.03362     5.19181
      O    8   -0.60543      1.99977     6.57370    0.03196     8.60543
      O    9   -0.68037      1.99978     6.65363    0.02695     8.68037
      F   10   -0.32283      1.99993     7.31382    0.00908     9.32283
      H   11    0.23794      0.00000     0.75909    0.00297     0.76206
      H   12    0.21687      0.00000     0.78058    0.00255     0.78313
      H   13    0.21398      0.00000     0.78342    0.00261     0.78602
      H   14    0.22919      0.00000     0.76784    0.00297     0.77081
      H   15    0.49691      0.00000     0.49982    0.00327     0.50309
 =======================================================================
   * Total *    0.00000     19.99330    51.76734    0.23936    72.00000

                      1                      2                      3
                      A                      A                      A
 Frequencies --     32.8310               132.5509               215.5050
 Red. masses --     10.3670                 4.8147                 7.8974
 Frc consts  --      0.0066                 0.0498                 0.2161
 IR Inten    --      2.5933                 0.6447                 3.4564

                      4                      5                      6
                      A                      A                      A
 Frequencies --    252.1900               355.5203               379.9529
 Red. masses --      5.2921                10.4502                 9.0356
 Frc consts  --      0.1983                 0.7782                 0.7685
 IR Inten    --      0.6306                 0.0392                 2.5713

                      7                      8                      9
                      A                      A                      A
 Frequencies --    436.5316               532.0744               550.4785
 Red. masses --      3.1465                 2.9784                 7.5089
 Frc consts  --      0.3533                 0.4968                 1.3406
 IR Inten    --      5.5005                 0.0054                 8.8513

                     10                     11                     12
                      A                      A                      A
 Frequencies --    564.8904               603.9361               640.9353
 Red. masses --      7.3273                 1.2908                 5.2176
 Frc consts  --      1.3776                 0.2774                 1.2628
 IR Inten    --     12.9263                65.3486                45.0130

                     13                     14                     15
                      A                      A                      A
 Frequencies --    711.1225               763.4197               788.2735
 Red. masses --      3.1695                 4.3672                 1.5471
 Frc consts  --      0.9444                 1.4996                 0.5664
 IR Inten    --     41.2986                17.3776                89.1943

                     16                     17                     18
                      A                      A                      A
 Frequencies --    824.9209               860.5907               908.0730
 Red. masses --      3.0847                 6.0934                 1.5463
 Frc consts  --      1.2368                 2.6589                 0.7513
 IR Inten    --      0.5602                21.0228                 3.9006

                     19                     20                     21
                      A                      A                      A
 Frequencies --   1004.7254              1023.9609              1069.0092
 Red. masses --      1.3724                 1.3441                 2.1469
 Frc consts  --      0.8162                 0.8303                 1.4455
 IR Inten    --      1.6942                 0.0034                11.9348

                     22                     23                     24
                      A                      A                      A
 Frequencies --   1123.5166              1150.5849              1172.9586
 Red. masses --      2.5730                 2.0222                 1.2232
 Frc consts  --      1.9136                 1.5773                 0.9915
 IR Inten    --      2.7012                87.6540                23.0753

                     25                     26                     27
                      A                      A                      A
 Frequencies --   1223.8131              1280.2046              1295.9815
 Red. masses --      1.6598                 2.2208                 2.1522
 Frc consts  --      1.4646                 2.1445                 2.1297
 IR Inten    --    175.2048                25.9980                47.2722

                     28                     29                     30
                      A                      A                      A
 Frequencies --   1336.5270              1407.2850              1506.9077
 Red. masses --      5.2133                 2.7314                 2.9444
 Frc consts  --      5.4868                 3.1871                 3.9394
 IR Inten    --     11.5663               154.4236               102.2768

                     31                     32                     33
                      A                      A                      A
 Frequencies --   1540.3859              1656.4620              1686.3174
 Red. masses --      2.9840                 7.2826                 6.9683
 Frc consts  --      4.1717                11.7733                11.6750
 IR Inten    --     56.2738                23.1637                80.6618

                     34                     35                     36
                      A                      A                      A
 Frequencies --   1838.1980              3210.7358              3224.2023
 Red. masses --     10.3677                 1.0875                 1.0901
 Frc consts  --     20.6403                 6.6051                 6.6770
 IR Inten    --    411.0601                 2.6052                 1.9222

                     37                     38                     39
                      A                      A                      A
 Frequencies --   3232.5837              3237.4630              3809.1422
 Red. masses --      1.0940                 1.0979                 1.0643
 Frc consts  --      6.7357                 6.7800                 9.0988
 IR Inten    --      1.1630                 3.5920               122.1390

 - Thermochemistry -
 -------------------
 Temperature   298.150 Kelvin.  Pressure   1.00000 Atm.
 Atom     1 has atomic number  6 and mass  12.00000

 Molecular mass:   140.02736 amu.
 Principal axes and moments of inertia in atomic units:
                           1         2         3
     Eigenvalues --   779.198321477.798212256.99654
           X            0.99985  -0.01704   0.00000
           Y            0.01704   0.99985   0.00000
           Z            0.00000   0.00000   1.00000
 This molecule is an asymmetric top.
 Rotational symmetry number  1.
 Warning -- assumption of classical behavior for rotation
           may cause significant error
 Rotational temperatures (Kelvin)      0.11116     0.05861     0.03838
 Rotational constants (GHZ):           2.31615     1.22124     0.79962
 Zero-point vibrational energy     284620.1 (Joules/Mol)
                                   68.02583 (Kcal/Mol)
 Warning -- explicit consideration of  11 degrees of freedom as
           vibrations may cause significant error
 Vibrational temperatures:     47.24   190.71   310.06   362.85   511.51
          (Kelvin)            546.67   628.07   765.54   792.02   812.75
                              868.93   922.16  1023.15  1098.39  1134.15
                             1186.88  1238.20  1306.51  1445.58  1473.25
                             1538.07  1616.49  1655.44  1687.63  1760.79
                             1841.93  1864.63  1922.96  2024.77  2168.10
                             2216.27  2383.28  2426.23  2644.76  4619.53
                             4638.91  4650.97  4657.99  5480.51

 Zero-point correction=                           0.108406 (Hartree/Particle)
 Thermal correction to Energy=                    0.116329
 Thermal correction to Enthalpy=                  0.117273
 Thermal correction to Gibbs Free Energy=         0.074687
 Sum of electronic and zero-point Energies=           -519.956595
 Sum of electronic and thermal Energies=              -519.948673
 Sum of electronic and thermal Enthalpies=            -519.947729
 Sum of electronic and thermal Free Energies=         -519.990314

                     E (Thermal)             CV                S
                      KCal/Mol        Cal/Mol-Kelvin    Cal/Mol-Kelvin
 Total                   72.997             29.879             89.629
 Electronic               0.000              0.000              0.000
 Translational            0.889              2.981             40.722
 Rotational               0.889              2.981             29.343
 Vibrational             71.220             23.918             19.565
 Vibration     1          0.594              1.983              5.651
 Vibration     2          0.613              1.921              2.909
 Vibration     3          0.645              1.817              1.997
 Vibration     4          0.664              1.759              1.715
 Vibration     5          0.731              1.564              1.142
 Vibration     6          0.750              1.513              1.039
 Vibration     7          0.797              1.391              0.838
 Vibration     8          0.887              1.179              0.583
 Vibration     9          0.906              1.139              0.543
 Vibration    10          0.921              1.107              0.514
 Vibration    11          0.962              1.023              0.443

 Optimization completed.
    -- Stationary point found.
 Normal termination of Gaussian 16 at Wed Apr  2 13:00:16 2025.
