 Gaussian 16, Revision C.01,
 Gaussian 16:  ES64L-G16RevC.01  3-Jul-2019

 ------------------------------------
 # opt freq m062x/aug-cc-pvtz pop=nbo
 ------------------------------------

 ----
 o-Me
 ----
 Symbolic Z-matrix:
 Charge =  0 Multiplicity = 1

 SCF Done:  E(RM062X) =  -460.092200188     A.U. after   13 cycles
 SCF Done:  E(RM062X) =  -460.122461977     A.U. after   12 cycles
 SCF Done:  E(RM062X) =  -460.125977923     A.U. after   12 cycles
 SCF Done:  E(RM062X) =  -460.126101223     A.U. after   11 cycles
 SCF Done:  E(RM062X) =  -460.126181407     A.U. after   10 cycles
 SCF Done:  E(RM062X) =  -460.126192295     A.U. after    9 cycles
 Optimization completed.
    -- Stationary point found.
 Normal termination of Gaussian 16 at Wed Apr  2 12:35:54 2025.

 ----------------------------------------------------------------------
 #N Geom=AllCheck Guess=TCheck SCRF=Check GenChk RM062X/Aug-CC-pVTZ Fre
 q
 ----------------------------------------------------------------------

 Structure from the checkpoint file:  "o-Me.chk"
 ----
 o-Me
 ----
 Charge =  0 Multiplicity = 1

                         Standard orientation:
 ---------------------------------------------------------------------
 Center     Atomic      Atomic             Coordinates (Angstroms)
 Number     Number       Type             X           Y           Z
 ---------------------------------------------------------------------
      1          6           0       -0.576567   -1.458821    0.000007
      2          6           0       -1.957553   -1.427894    0.000009
      3          6           0       -2.602352   -0.200129    0.000004
      4          6           0       -1.861965    0.970451   -0.000004
      5          6           0       -0.467547    0.968667   -0.000005
      6          6           0        0.173471   -0.282135    0.000001
      7          6           0        1.649408   -0.494470    0.000002
      8          8           0        2.175461   -1.576357   -0.000034
      9          8           0        2.385366    0.633759    0.000036
     10          6           0        0.238057    2.298407   -0.000016
     11          1           0       -0.041395   -2.397635    0.000009
     12          1           0       -2.523548   -2.348611    0.000014
     13          1           0       -3.683066   -0.150842    0.000006
     14          1           0       -2.376406    1.922617   -0.000009
     15          1           0        3.309480    0.349836    0.000030
     16          1           0       -0.496396    3.100643   -0.000037
     17          1           0        0.877487    2.410169    0.873387
     18          1           0        0.877511    2.410144   -0.873405
 ---------------------------------------------------------------------

 SCF Done:  E(RM062X) =  -460.126192295     A.U. after    1 cycles

 The electronic state is 1-A.
 Alpha  occ. eigenvalues --  -19.67736 -19.61779 -10.68276 -10.57139 -10.56436
 Alpha  occ. eigenvalues --  -10.55637 -10.55309 -10.54944 -10.54919 -10.53547
 Alpha  occ. eigenvalues --   -1.24612  -1.14617  -0.98200  -0.88645  -0.87052
 Alpha  occ. eigenvalues --   -0.79338  -0.75279  -0.68832  -0.67647  -0.60710
 Alpha  occ. eigenvalues --   -0.58924  -0.56058  -0.54790  -0.53523  -0.51814
 Alpha  occ. eigenvalues --   -0.49089  -0.49014  -0.48475  -0.45501  -0.44078
 Alpha  occ. eigenvalues --   -0.41332  -0.41081  -0.40397  -0.36485  -0.32156
 Alpha  occ. eigenvalues --   -0.31149
 Alpha virt. eigenvalues --   -0.02539  -0.00771  -0.00014   0.00617   0.00938
 Alpha virt. eigenvalues --    0.01775   0.02160   0.02436   0.03229   0.04461
 Alpha virt. eigenvalues --    0.04829   0.05099   0.05193   0.06567   0.07439

 Mulliken charges:
               1
     1  C   -1.032609
     2  C   -0.200459
     3  C   -0.228650
     4  C   -0.558320
     5  C    1.133377
     6  C    1.510936
     7  C    0.287521
     8  O   -0.950102
     9  O   -0.428538
    10  C   -1.021109
    11  H    0.216080
    12  H    0.159522
    13  H    0.121920
    14  H    0.131816
    15  H    0.278247
    16  H    0.096078
    17  H    0.242145
    18  H    0.242143
 Sum of Mulliken charges =   0.00000

 Dipole moment (field-independent basis, Debye):
    X=             -1.0952    Y=              1.8359    Z=              0.0000  Tot=              2.1377
 Quadrupole moment (field-independent basis, Debye-Ang):
   XX=            -50.8618   YY=            -58.4348   ZZ=            -60.9974
   XY=              5.3503   XZ=              0.0002   YZ=             -0.0002

  Exact polarizability:     126.617       1.824     114.038       0.000       0.000      60.540
 Approx polarizability:     152.011      -1.015     147.260       0.000       0.000      82.105

 Summary of Natural Population Analysis:

                                       Natural Population
                Natural  -----------------------------------------------
    Atom  No    Charge         Core      Valence    Rydberg      Total
 -----------------------------------------------------------------------
      C    1   -0.14468      1.99922     4.12609    0.01937     6.14468
      C    2   -0.21967      1.99926     4.20350    0.01691     6.21967
      C    3   -0.16865      1.99927     4.15209    0.01729     6.16865
      C    4   -0.21614      1.99919     4.19776    0.01920     6.21614
      C    5    0.02732      1.99913     3.95092    0.02263     5.97268
      C    6   -0.18622      1.99890     4.16226    0.02506     6.18622
      C    7    0.80836      1.99940     3.15967    0.03256     5.19164
      O    8   -0.61145      1.99977     6.57998    0.03170     8.61145
      O    9   -0.70071      1.99978     6.67626    0.02466     8.70071
      C   10   -0.60643      1.99944     4.59487    0.01212     6.60643
      H   11    0.23445      0.00000     0.76258    0.00297     0.76555
      H   12    0.21288      0.00000     0.78464    0.00248     0.78712
      H   13    0.20959      0.00000     0.78781    0.00260     0.79041
      H   14    0.20583      0.00000     0.79153    0.00264     0.79417
      H   15    0.49831      0.00000     0.49824    0.00344     0.50169
      H   16    0.20264      0.00000     0.79512    0.00224     0.79736
      H   17    0.22729      0.00000     0.77047    0.00225     0.77271
      H   18    0.22728      0.00000     0.77047    0.00225     0.77272
 =======================================================================
   * Total *    0.00000     19.99336    51.76427    0.24237    72.00000

                      1                      2                      3
                      A                      A                      A
 Frequencies --     25.5910               130.9789               223.6089
 Red. masses --      7.2972                 3.8716                 2.9067
 Frc consts  --      0.0028                 0.0391                 0.0856
 IR Inten    --      1.5481                 0.0016                 4.1927

                      4                      5                      6
                      A                      A                      A
 Frequencies --    256.1264               280.7080               360.9992
 Red. masses --      5.8953                 1.0831                 3.4896
 Frc consts  --      0.2279                 0.0503                 0.2679
 IR Inten    --      1.4635                 0.0878                 2.7686

                      7                      8                      9
                      A                      A                      A
 Frequencies --    378.4394               435.7622               498.4839
 Red. masses --      7.4753                 3.0604                 2.8324
 Frc consts  --      0.6308                 0.3424                 0.4147
 IR Inten    --      3.1357                 5.5439                 0.0419

                     10                     11                     12
                      A                      A                      A
 Frequencies --    530.4194               562.3639               609.4311
 Red. masses --      4.7979                 5.6589                 1.2617
 Frc consts  --      0.7953                 1.0544                 0.2761
 IR Inten    --      1.4092                 5.7387                65.1506

                     13                     14                     15
                      A                      A                      A
 Frequencies --    649.3270               723.4610               754.1765
 Red. masses --      5.0932                 3.3734                 4.1809
 Frc consts  --      1.2652                 1.0403                 1.4011
 IR Inten    --     38.6522                17.0149                21.8704

                     16                     17                     18
                      A                      A                      A
 Frequencies --    766.6220               836.2700               837.7711
 Red. masses --      1.3828                 4.5771                 3.1599
 Frc consts  --      0.4788                 1.8860                 1.3067
 IR Inten    --     96.0447                 3.8258                 0.4264

                     19                     20                     21
                      A                      A                      A
 Frequencies --    909.9180              1008.0545              1028.2314
 Red. masses --      1.3349                 1.3916                 1.5488
 Frc consts  --      0.6512                 0.8332                 0.9648
 IR Inten    --      0.0002                 0.3407                 0.4534

                     22                     23                     24
                      A                      A                      A
 Frequencies --   1034.2828              1066.9896              1086.5383
 Red. masses --      1.3311                 1.5819                 2.4069
 Frc consts  --      0.8389                 1.0611                 1.6742
 IR Inten    --      0.0043                 2.8944                22.5721

                     25                     26                     27
                      A                      A                      A
 Frequencies --   1118.8357              1152.5551              1181.3113
 Red. masses --      3.3040                 1.8831                 1.1380
 Frc consts  --      2.4368                 1.4738                 0.9356
 IR Inten    --      6.9664               104.2092                 3.9779

                     28                     29                     30
                      A                      A                      A
 Frequencies --   1223.3630              1235.6190              1307.4018
 Red. masses --      1.6611                 2.6142                 1.9174
 Frc consts  --      1.4647                 2.3516                 1.9310
 IR Inten    --    151.0717                32.1443                 9.9549

                     31                     32                     33
                      A                      A                      A
 Frequencies --   1324.0399              1390.9601              1420.3886
 Red. masses --      2.8779                 2.6196                 1.2376
 Frc consts  --      2.9726                 2.9862                 1.4711
 IR Inten    --      6.1999               121.9677                 1.1230

                     34                     35                     36
                      A                      A                      A
 Frequencies --   1487.4047              1494.7766              1508.3504
 Red. masses --      1.8490                 1.0431                 1.3451
 Frc consts  --      2.4101                 1.3732                 1.8030
 IR Inten    --     45.9653                 7.2200                14.9536

                     37                     38                     39
                      A                      A                      A
 Frequencies --   1535.0313              1643.1158              1675.9972
 Red. masses --      2.5271                 6.4798                 6.1386
 Frc consts  --      3.5084                10.3074                10.1594
 IR Inten    --      3.7634                 1.0367                30.4150

                     40                     41                     42
                      A                      A                      A
 Frequencies --   1831.7455              3082.0621              3148.0978
 Red. masses --     10.0557                 1.0353                 1.1003
 Frc consts  --     19.8790                 5.7941                 6.4246
 IR Inten    --    409.0947                12.7366                 4.7132

                     43                     44                     45
                      A                      A                      A
 Frequencies --   3158.1243              3195.9854              3210.1541
 Red. masses --      1.1038                 1.0871                 1.0913
 Frc consts  --      6.4866                 6.5424                 6.6261
 IR Inten    --     11.6297                 3.0387                 9.4049

                     46                     47                     48
                      A                      A                      A
 Frequencies --   3221.6021              3234.1045              3809.8513
 Red. masses --      1.0931                 1.0959                 1.0643
 Frc consts  --      6.6846                 6.7535                 9.1022
 IR Inten    --      4.3628                 5.5064               116.8448

 - Thermochemistry -
 -------------------
 Temperature   298.150 Kelvin.  Pressure   1.00000 Atm.
 Atom     1 has atomic number  6 and mass  12.00000

 Molecular mass:   136.05243 amu.
 Principal axes and moments of inertia in atomic units:
                           1         2         3
     Eigenvalues --   800.947781485.814582275.78076
           X            0.99957   0.02948   0.00000
           Y           -0.02948   0.99957   0.00000
           Z            0.00000   0.00000   1.00000
 This molecule is an asymmetric top.
 Rotational symmetry number  1.
 Warning -- assumption of classical behavior for rotation
           may cause significant error
 Rotational temperatures (Kelvin)      0.10814     0.05829     0.03806
 Rotational constants (GHZ):           2.25326     1.21465     0.79302
 Zero-point vibrational energy     380325.3 (Joules/Mol)
                                   90.89994 (Kcal/Mol)
 Warning -- explicit consideration of  12 degrees of freedom as
           vibrations may cause significant error
 Vibrational temperatures:     36.82   188.45   321.72   368.51   403.88
          (Kelvin)            519.40   544.49   626.96   717.21   763.16
                              809.12   876.84   934.24  1040.90  1085.09
                             1103.00  1203.21  1205.37  1309.17  1450.37
                             1479.40  1488.10  1535.16  1563.29  1609.76
                             1658.27  1699.64  1760.15  1777.78  1881.06
                             1905.00  2001.28  2043.62  2140.04  2150.65
                             2170.18  2208.57  2364.08  2411.39  2635.47
                             4434.40  4529.41  4543.84  4598.31  4618.70
                             4635.17  4653.16  5481.53

 Zero-point correction=                           0.144858 (Hartree/Particle)
 Thermal correction to Energy=                    0.153340
 Thermal correction to Enthalpy=                  0.154284
 Thermal correction to Gibbs Free Energy=         0.110647
 Sum of electronic and zero-point Energies=           -459.981334
 Sum of electronic and thermal Energies=              -459.972853
 Sum of electronic and thermal Enthalpies=            -459.971909
 Sum of electronic and thermal Free Energies=         -460.015545

                     E (Thermal)             CV                S
                      KCal/Mol        Cal/Mol-Kelvin    Cal/Mol-Kelvin
 Total                   96.222             32.619             91.841
 Electronic               0.000              0.000              0.000
 Translational            0.889              2.981             40.636
 Rotational               0.889              2.981             29.384
 Vibrational             94.445             26.657             21.822
 Vibration     1          0.593              1.985              6.145
 Vibration     2          0.612              1.922              2.932
 Vibration     3          0.649              1.805              1.930
 Vibration     4          0.666              1.752              1.688
 Vibration     5          0.680              1.709              1.529
 Vibration     6          0.735              1.553              1.118
 Vibration     7          0.749              1.516              1.045
 Vibration     8          0.796              1.392              0.840
 Vibration     9          0.854              1.253              0.662
 Vibration    10          0.885              1.183              0.586
 Vibration    11          0.918              1.113              0.519
 Vibration    12          0.968              1.012              0.434

 Optimization completed.
    -- Stationary point found.
 Normal termination of Gaussian 16 at Wed Apr  2 13:27:45 2025.
