 Gaussian 16, Revision C.01,
 Gaussian 16:  ES64L-G16RevC.01  3-Jul-2019

 ------------------------------------
 # opt freq m062x/aug-cc-pvtz pop=nbo
 ------------------------------------

 ----
 p-Cl
 ----
 Symbolic Z-matrix:
 Charge =  0 Multiplicity = 1

 SCF Done:  E(RM062X) =  -880.400462298     A.U. after   14 cycles
 SCF Done:  E(RM062X) =  -880.427598901     A.U. after   12 cycles
 SCF Done:  E(RM062X) =  -880.429617396     A.U. after   11 cycles
 SCF Done:  E(RM062X) =  -880.429748846     A.U. after   10 cycles
 SCF Done:  E(RM062X) =  -880.429757596     A.U. after    9 cycles
 Optimization completed.
    -- Stationary point found.

 1\1\GINC-AE34\FOpt\RM062X\Aug-CC-pVTZ\C7H5Cl1O2\DHUANG\02-Apr-2025\0\\
 # opt freq m062x/aug-cc-pvtz pop=nbo\\p-Cl\\0,1\C,-1.2561594121,-0.292
 6471105,0.3372960339\C,-0.9779300244,-1.6461580579,0.3932531813\C,0.29
 41773201,-2.0848176434,0.0539596173\C,1.2864673137,-1.1990245847,-0.33
 78027483\C,0.9979624351,0.1542491708,-0.3906279619\C,-0.2724313682,0.6
 098271968,-0.0536021499\C,-0.6275519841,2.0505091235,-0.0953238172\O,-
 1.7068110689,2.4970426329,0.184778717\O,0.3957277903,2.8338476266,-0.4
 859184764\Cl,0.6512096329,-3.7801298119,0.1214633094\H,-2.2361831213,0

 Normal termination of Gaussian 16 at Wed Apr  2 12:18:34 2025.

 ----------------------------------------------------------------------
 #N Geom=AllCheck Guess=TCheck SCRF=Check GenChk RM062X/Aug-CC-pVTZ Fre
 q
 ----------------------------------------------------------------------

 Structure from the checkpoint file:  "p-Cl.chk"
 ----
 p-Cl
 ----
 Charge =  0 Multiplicity = 1

                         Standard orientation:
 ---------------------------------------------------------------------
 Center     Atomic      Atomic             Coordinates (Angstroms)
 Number     Number       Type             X           Y           Z
 ---------------------------------------------------------------------
      1          6           0       -0.366444    1.228910   -0.000011
      2          6           0        1.016446    1.216662   -0.000002
      3          6           0        1.677189   -0.003674   -0.000001
      4          6           0        0.983371   -1.204242   -0.000008
      5          6           0       -0.401133   -1.181370   -0.000016
      6          6           0       -1.078228    0.033776   -0.000019
      7          6           0       -2.560787    0.107505   -0.000033
      8          8           0       -3.194604    1.127763    0.000019
      9          8           0       -3.148143   -1.104228    0.000023
     10         17           0        3.410835   -0.027806    0.000011
     11          1           0       -0.913701    2.161188   -0.000012
     12          1           0        1.584377    2.135228    0.000003
     13          1           0        1.525894   -2.138058   -0.000008
     14          1           0       -0.958901   -2.106279   -0.000022
     15          1           0       -4.102375   -0.953056    0.000058
 ---------------------------------------------------------------------

 SCF Done:  E(RM062X) =  -880.429757596     A.U. after    1 cycles

 The electronic state is 1-A.
 Alpha  occ. eigenvalues -- -102.69161 -19.68439 -19.62769 -10.69073 -10.62584
 Alpha  occ. eigenvalues --  -10.57537 -10.57351 -10.57127 -10.57037 -10.56982
 Alpha  occ. eigenvalues --   -9.82859  -7.55092  -7.54552  -7.54525  -1.25265
 Alpha  occ. eigenvalues --   -1.15566  -1.01819  -0.96120  -0.87734  -0.86672
 Alpha  occ. eigenvalues --   -0.75785  -0.72652  -0.68523  -0.63033  -0.59589
 Alpha  occ. eigenvalues --   -0.56315  -0.55422  -0.55390  -0.53928  -0.51942
 Alpha  occ. eigenvalues --   -0.49347  -0.48775  -0.45185  -0.43724  -0.42236
 Alpha  occ. eigenvalues --   -0.40872  -0.39042  -0.37292  -0.33827  -0.31910
 Alpha virt. eigenvalues --   -0.03656  -0.00936  -0.00614   0.00141   0.00606
 Alpha virt. eigenvalues --    0.01898   0.02706   0.03021   0.03461   0.04508
 Alpha virt. eigenvalues --    0.04693   0.05857   0.05920   0.06797   0.07225

 Mulliken charges:
               1
     1  C   -0.767272
     2  C   -0.559888
     3  C    0.703459
     4  C   -0.645503
     5  C   -0.486625
     6  C    1.787652
     7  C    0.373515
     8  O   -0.902658
     9  O   -0.532169
    10  Cl  -0.282326
    11  H    0.177358
    12  H    0.312088
    13  H    0.312065
    14  H    0.203229
    15  H    0.307077
 Sum of Mulliken charges =   0.00000

 Dipole moment (field-independent basis, Debye):
    X=             -0.1448    Y=             -1.4010    Z=              0.0000  Tot=              1.4085
 Quadrupole moment (field-independent basis, Debye-Ang):
   XX=            -64.7007   YY=            -60.8688   ZZ=            -66.1330
   XY=              6.8940   XZ=              0.0000   YZ=             -0.0001

  Exact polarizability:     150.849      -1.548     101.535       0.000       0.000      59.626
 Approx polarizability:     170.621      -3.816     142.544       0.000       0.000      81.496

 Summary of Natural Population Analysis:

                                       Natural Population
                Natural  -----------------------------------------------
    Atom  No    Charge         Core      Valence    Rydberg      Total
 -----------------------------------------------------------------------
      C    1   -0.13907      1.99920     4.12068    0.01918     6.13907
      C    2   -0.23021      1.99911     4.21331    0.01779     6.23021
      C    3   -0.01507      1.99872     3.98557    0.03078     6.01507
      C    4   -0.23163      1.99911     4.21454    0.01797     6.23163
      C    5   -0.14865      1.99920     4.13026    0.01919     6.14865
      C    6   -0.18284      1.99899     4.15829    0.02555     6.18284
      C    7    0.80512      1.99939     3.16247    0.03302     5.19488
      O    8   -0.59985      1.99977     6.56839    0.03169     8.59985
      O    9   -0.70069      1.99978     6.67608    0.02483     8.70069
     Cl   10    0.01567      9.99964     6.96818    0.01650    16.98433
      H   11    0.23793      0.00000     0.75914    0.00293     0.76207
      H   12    0.22881      0.00000     0.76838    0.00282     0.77119
      H   13    0.22827      0.00000     0.76889    0.00284     0.77173
      H   14    0.23243      0.00000     0.76460    0.00297     0.76757
      H   15    0.49979      0.00000     0.49694    0.00327     0.50021
 =======================================================================
   * Total *    0.00000     27.99293    51.75574    0.25133    80.00000

                      1                      2                      3
                      A                      A                      A
 Frequencies --     67.4071                89.5695               176.6071
 Red. masses --      6.9560                 9.0656                 9.0897
 Frc consts  --      0.0186                 0.0429                 0.1670
 IR Inten    --      1.1099                 0.1658                 1.2961

                      4                      5                      6
                      A                      A                      A
 Frequencies --    265.6570               312.1492               317.4378
 Red. masses --      6.1227                11.6634                 6.8568
 Frc consts  --      0.2546                 0.6696                 0.4071
 IR Inten    --      0.6381                 1.0309                 0.8530

                      7                      8                      9
                      A                      A                      A
 Frequencies --    412.3252               481.7305               502.3841
 Red. masses --      2.8751                 2.8217                 6.1990
 Frc consts  --      0.2880                 0.3858                 0.9218
 IR Inten    --      0.2366                29.2151                15.9995

                     10                     11                     12
                      A                      A                      A
 Frequencies --    536.2794               588.5852               641.4816
 Red. masses --      8.2246                 1.2147                 7.1349
 Frc consts  --      1.3936                 0.2479                 1.7298
 IR Inten    --     32.1286                54.9971                 1.1438

                     13                     14                     15
                      A                      A                      A
 Frequencies --    690.0355               706.5019               789.8550
 Red. masses --      4.6012                 3.7126                 3.2761
 Frc consts  --      1.2908                 1.0918                 1.2042
 IR Inten    --     19.1025                25.1523                71.8647

                     16                     17                     18
                      A                      A                      A
 Frequencies --    806.9917               862.1858               888.1817
 Red. masses --      5.3267                 1.2525                 1.8970
 Frc consts  --      2.0439                 0.5485                 0.8817
 IR Inten    --     42.6132                 0.0870                14.2300

                     19                     20                     21
                      A                      A                      A
 Frequencies --    999.5036              1013.0162              1036.7547
 Red. masses --      1.3512                 1.3692                 3.6391
 Frc consts  --      0.7953                 0.8278                 2.3046
 IR Inten    --      0.0725                 0.0494                28.3062

                     22                     23                     24
                      A                      A                      A
 Frequencies --   1125.6726              1127.4171              1140.9072
 Red. masses --      1.5377                 2.7545                 3.2623
 Frc consts  --      1.1480                 2.0628                 2.5019
 IR Inten    --     62.1820                68.1196                44.3732

                     25                     26                     27
                      A                      A                      A
 Frequencies --   1194.3390              1221.1184              1312.3259
 Red. masses --      1.1972                 1.6503                 3.4170
 Frc consts  --      1.0062                 1.4499                 3.4672
 IR Inten    --     80.9691               166.5257                 3.2052

                     28                     29                     30
                      A                      A                      A
 Frequencies --   1327.1751              1394.9590              1446.9061
 Red. masses --      1.6621                 2.9114                 3.3037
 Frc consts  --      1.7249                 3.3379                 4.0750
 IR Inten    --      2.9049               186.3225                36.0322

                     31                     32                     33
                      A                      A                      A
 Frequencies --   1537.8737              1645.6610              1667.8369
 Red. masses --      2.6493                 7.7496                 6.1620
 Frc consts  --      3.6917                12.3654                10.0990
 IR Inten    --     18.6967                 3.9954                95.1177

                     34                     35                     36
                      A                      A                      A
 Frequencies --   1849.3213              3223.5714              3228.7063
 Red. masses --     10.4468                 1.0893                 1.0893
 Frc consts  --     21.0503                 6.6692                 6.6907
 IR Inten    --    414.8531                 0.4739                 0.0404

                     37                     38                     39
                      A                      A                      A
 Frequencies --   3237.2539              3241.9917              3817.9904
 Red. masses --      1.0958                 1.0957                 1.0646
 Frc consts  --      6.7658                 6.7852                 9.1436
 IR Inten    --      0.5553                 0.4843               137.8028

 - Thermochemistry -
 -------------------
 Temperature   298.150 Kelvin.  Pressure   1.00000 Atm.
 Atom     1 has atomic number  6 and mass  12.00000

 Molecular mass:   155.99781 amu.
 Principal axes and moments of inertia in atomic units:
                           1         2         3
     Eigenvalues --   461.845833235.044753696.89058
           X            0.99999   0.00537   0.00000
           Y           -0.00537   0.99999   0.00000
           Z            0.00000   0.00000   1.00000
 This molecule is an asymmetric top.
 Rotational symmetry number  1.
 Warning -- assumption of classical behavior for rotation
           may cause significant error
 Rotational temperatures (Kelvin)      0.18754     0.02677     0.02343
 Rotational constants (GHZ):           3.90767     0.55787     0.48818
 Zero-point vibrational energy     280677.8 (Joules/Mol)
                                   67.08361 (Kcal/Mol)
 Warning -- explicit consideration of  11 degrees of freedom as
           vibrations may cause significant error
 Vibrational temperatures:     96.98   128.87   254.10   382.22   449.11
          (Kelvin)            456.72   593.24   693.10   722.82   771.59
                              846.84   922.95   992.81  1016.50  1136.43
                             1161.08  1240.49  1277.90  1438.06  1457.50
                             1491.66  1619.59  1622.10  1641.51  1718.39
                             1756.92  1888.14  1909.51  2007.03  2081.78
                             2212.66  2367.74  2399.65  2660.76  4638.00
                             4645.39  4657.69  4664.50  5493.24

 Zero-point correction=                           0.106905 (Hartree/Particle)
 Thermal correction to Energy=                    0.115170
 Thermal correction to Enthalpy=                  0.116114
 Thermal correction to Gibbs Free Energy=         0.072708
 Sum of electronic and zero-point Energies=           -880.322853
 Sum of electronic and thermal Energies=              -880.314588
 Sum of electronic and thermal Enthalpies=            -880.313643
 Sum of electronic and thermal Free Energies=         -880.357050

                     E (Thermal)             CV                S
                      KCal/Mol        Cal/Mol-Kelvin    Cal/Mol-Kelvin
 Total                   72.270             30.869             91.356
 Electronic               0.000              0.000              0.000
 Translational            0.889              2.981             41.043
 Rotational               0.889              2.981             30.092
 Vibrational             70.493             24.907             20.221
 Vibration     1          0.598              1.970              4.228
 Vibration     2          0.602              1.957              3.669
 Vibration     3          0.628              1.871              2.364
 Vibration     4          0.671              1.736              1.624
 Vibration     5          0.700              1.651              1.351
 Vibration     6          0.704              1.640              1.323
 Vibration     7          0.776              1.443              0.918
 Vibration     8          0.838              1.291              0.705
 Vibration     9          0.858              1.245              0.652
 Vibration    10          0.891              1.170              0.573
 Vibration    11          0.946              1.056              0.470

 Optimization completed.
    -- Stationary point found.

 1\1\GINC-AE34\Freq\RM062X\Aug-CC-pVTZ\C7H5Cl1O2\DHUANG\02-Apr-2025\0\\
 #N Geom=AllCheck Guess=TCheck SCRF=Check GenChk RM062X/Aug-CC-pVTZ Fre
 q\\p-Cl\\0,1\C,-1.2561594121,-0.2926471105,0.3372960339\C,-0.977930024
 4,-1.6461580579,0.3932531813\C,0.2941773201,-2.0848176434,0.0539596173
 \C,1.2864673137,-1.1990245847,-0.3378027483\C,0.9979624351,0.154249170
 8,-0.3906279619\C,-0.2724313682,0.6098271968,-0.0536021499\C,-0.627551
 9841,2.0505091235,-0.0953238172\O,-1.7068110689,2.4970426329,0.1847787
 17\O,0.3957277903,2.8338476266,-0.4859184764\Cl,0.6512096329,-3.780129

 Normal termination of Gaussian 16 at Wed Apr  2 12:53:35 2025.
